# LAMMPS data file written by Ovito Pro 3.0.0-dev682
# Delete a Cr Id 126 Position 7.12096 7.11553 7.12259
# 79 126 2 7.12096 7.11553 7.12259
249 atoms
2 atom types
0.0 14.2406 xlo xhi
0.0 14.2406 ylo yhi
0.0 14.2406 zlo zhi

Masses

1 55.845  # Fe
2 51.996  # Cr

Atoms  # atomic

14 1 4.26825 4.26636 1.40297 
2 1 1.43993 1.43144 1.41602 
6 1 7.1183 1.41972 1.41982 
4 1 4.27886 1.42075 1.426 
12 1 1.4263 4.28441 1.45652 
15 1 5.69379 2.84372 -7.45642e-05 
65 1 5.70025 2.87844 2.84251 
53 1 2.8232 0.00995189 2.87639 
55 1 5.70312 0.00896228 2.84741 
63 1 2.86326 2.84413 2.82933 
52 1 1.4296 1.46766 4.26771 
62 2 1.42697 4.27918 4.26628 
101 1 0.0234228 0.0144419 5.67466 
103 2 2.8561 0.00324184 5.70386 
115 1 5.70159 2.8534 5.70285 
113 1 2.86068 2.81257 5.71575 
54 1 4.2924 1.43534 4.25862 
64 1 4.2367 4.25536 4.28196 
56 1 7.11239 1.42347 4.27492 
112 1 1.40939 4.26037 7.09181 
111 1 0.00304079 2.82698 5.69224 
102 1 1.40939 1.42933 7.14541 
154 1 4.27351 1.42369 9.9641 
165 1 5.7006 2.85989 8.54282 
152 1 1.4242 1.42405 9.9597 
156 1 7.10892 1.44005 9.95293 
164 1 4.26621 4.26997 9.97176 
162 1 1.44924 4.25887 9.97139 
163 1 2.84903 2.85015 8.54247 
104 1 4.29277 1.43152 7.13703 
114 1 4.26928 4.27379 7.12355 
216 1 7.11585 4.26967 12.8167 
202 1 1.39551 1.4204 12.8166 
203 1 2.84828 0.0163002 11.3893 
211 1 0.0123302 2.86023 11.3845 
212 1 1.42989 4.27761 12.8147 
213 1 2.85133 2.83856 11.4021 
204 1 4.27749 1.41989 12.8187 
205 1 5.72268 0.00841554 11.3862 
214 1 4.27773 4.27628 12.8214 
215 1 5.689 2.85056 11.3935 
206 1 7.10456 1.42877 12.8309 
13 1 2.84409 2.84946 14.2334 
3 1 2.85508 0.013417 14.2446 
11 1 0.0182492 2.8711 14.2453 
83 1 2.86528 8.52978 2.87386 
22 1 1.43506 7.13629 1.44089 
75 2 5.70547 5.69485 2.84669 
25 1 5.70343 5.70095 0.0212146 
24 1 4.27552 7.13529 1.40349 
85 1 5.69859 8.51618 2.857 
73 1 2.88814 5.7089 2.83544 
81 1 -0.00105741 8.56571 2.83138 
23 1 2.8417 5.69894 -0.00273595 
72 1 1.4184 7.09048 4.26394 
135 1 5.70066 8.54937 5.67943 
123 1 2.86314 5.70606 5.71429 
131 1 0.00642323 8.54678 5.70169 
133 1 2.84064 8.53893 5.68258 
74 1 4.27014 7.12341 4.2831 
125 1 5.6841 5.68159 5.66418 
121 1 0.00645069 5.72104 5.72339 
122 1 1.44678 7.13601 7.11207  
174 1 4.26667 7.11069 9.97395 
175 1 5.68156 5.68409 8.55465 
172 1 1.44052 7.13323 9.99091 
173 1 2.83096 5.69817 8.53637 
181 1 0.00856135 8.50608 8.52811 
183 1 2.846 8.5395 8.55753 
185 1 5.69777 8.54777 8.57376 
124 1 4.30223 7.14536 7.12492 
235 1 5.69737 8.5384 11.3799 
222 1 1.401 7.10411 12.7956 
223 1 2.85679 5.6931 11.3992 
225 1 5.70096 5.69627 11.3923 
233 1 2.85324 8.54644 11.392 
224 1 4.28085 7.11805 12.8181 
226 1 7.11597 7.12701 12.8155 
231 1 0.0108927 8.57721 11.4217 
33 1 2.83526 8.52154 14.2241 
35 1 5.69776 8.57819 14.2333 
221 1 0.00425702 5.67777 11.3531 
21 1 0.0136927 5.70915 14.2421 
32 2 1.47283 9.9751 1.42704 
95 1 5.69633 11.3851 2.81736 
42 1 1.44348 12.7875 1.41545 
5 1 5.6935 14.2126 0.0051047 
44 1 4.26109 12.8372 1.44913 
93 1 2.8378 11.3966 2.8698 
34 1 4.24731 9.94895 1.44178 
36 1 7.12958 9.95226 1.43709 
1 1 0.0134809 14.2373 0.0417111 
45 2 5.69686 11.3908 0.00494053 
82 1 1.42625 9.95891 4.25793 
92 1 1.41847 12.8192 4.28125 
145 1 5.71747 11.4007 5.68494 
143 1 2.83963 11.4261 5.68818 
84 1 4.27969 9.97878 4.2958 
94 1 4.28909 12.8125 4.25419 
96 1 7.11856 12.8188 4.26307 
105 1 5.67236 14.2368 5.69994 
134 2 4.2688 9.97266 7.11994 
86 1 7.12152 9.97477 4.25782 
132 1 1.44919 9.97342 7.11899 
153 1 2.85691 14.2393 8.51514 
142 1 1.40029 12.8105 7.12868 
182 1 1.39467 9.95782 9.96651 
191 1 0.00589113 11.3919 8.56589 
192 1 1.43923 12.8389 9.95646 
193 1 2.83577 11.3999 8.56077 
155 1 5.69559 14.2343 8.54543 
144 1 4.28512 12.7784 7.13239 
184 1 4.26678 9.97718 9.95303 
194 1 4.27284 12.823 9.97787 
195 1 5.70975 11.3944 8.55963 
136 1 7.09518 9.9457 7.12303 
196 1 7.10893 12.8021 9.96677 
232 1 1.45802 9.97922 12.851 
201 1 0.0107653 14.2048 11.3899 
242 1 1.44746 12.8326 12.8444 
243 1 2.8237 11.395 11.3837 
234 1 4.26491 9.95661 12.7974 
244 1 4.2666 12.8367 12.7942 
245 1 5.68737 11.388 11.4167 
43 1 2.90879 11.408 14.2338 
69 1 11.3917 2.87893 2.85024 
51 2 14.2344 0.00635812 2.84462 
8 1 9.96759 1.42743 1.43114 
16 1 7.13703 4.26275 1.40967 
20 1 12.8273 4.26538 1.41661 
18 1 9.93995 4.26178 1.42145 
57 1 8.55092 0.00466527 2.85004 
67 1 8.53736 2.83326 2.84911 
61 1 14.227 2.81554 2.8323 
10 1 12.7983 1.44136 1.38741 
59 1 11.4123 0.00718862 2.84435 
119 1 11.3734 2.83116 5.71495 
58 1 9.96911 1.42166 4.26956 
66 1 7.13163 4.25776 4.27651 
68 1 9.95322 4.25264 4.27404 
120 2 12.8105 4.27394 7.06919 
117 1 8.5378 2.84223 5.70507 
60 1 12.7948 1.43088 4.27675 
70 1 12.8487 4.26219 4.29765 
109 1 11.3871 0.00203672 5.70571 
118 1 9.99177 4.27804 7.11128 
108 1 9.94247 1.39905 7.11554 
170 1 12.8138 4.27262 9.9393 
151 1 14.2289 0.00361218 8.54886 
169 2 11.3651 2.81422 8.56653 
106 1 7.11806 1.41935 7.1239 
160 1 12.8284 1.40352 10.0115 
161 1 14.2147 2.87114 8.55378 
158 1 9.95618 1.4166 9.96881 
166 1 7.12325 4.26393 9.97551 
167 1 8.55914 2.85396 8.5317 
168 1 9.94242 4.27364 9.97798 
110 1 12.8248 1.43612 7.11709 
116 1 7.11951 4.29741 7.12017 
220 1 12.8172 4.27135 12.8114 
210 2 12.8195 1.42766 12.8169 
208 1 10.0057 1.43665 12.8214 
219 1 11.3876 2.86264 11.3618 
217 1 8.53555 2.81749 11.4009 
218 1 9.95457 4.26757 12.8094 
7 1 8.5533 0.00657222 14.2166 
17 1 8.54393 2.83818 14.2339 
207 2 8.54259 -0.000763288 11.397 
19 1 11.3797 2.86945 14.2425 
26 1 7.13367 7.1366 1.41177 
71 1 14.2035 5.70867 2.83915 
28 1 9.95099 7.13037 1.41113 
89 1 11.3888 8.51746 2.84139 
77 1 8.54029 5.69917 2.84802 
87 1 8.54688 8.55029 2.85102 
29 1 11.374 5.67308 0.0284424 
30 1 12.8127 7.12229 1.38843 
79 2 11.3858 5.69531 2.84704 
76 1 7.13896 7.12585 4.30377 
78 1 9.95153 7.13638 4.27365 
127 1 8.55407 5.68043 5.6893 
137 1 8.55138 8.56721 5.69325 
80 1 12.8278 7.14339 4.27542 
129 1 11.3742 5.71133 5.64609 
139 1 11.3842 8.54304 5.70965 
128 1 9.93698 7.10843 7.11805 
179 1 11.4114 5.67679 8.54659 
189 1 11.3672 8.52099 8.52148 
176 1 7.12471 7.11384 9.94519 
177 1 8.551 5.67996 8.55063 
178 1 9.96297 7.10516 9.96036 
187 1 8.55361 8.5606 8.55711 
180 1 12.8041 7.15228 9.99866 
171 2 14.2702 5.72355 8.56656 
130 1 12.7982 7.09775 7.11039 
239 1 11.3524 8.54062 11.3891 
227 1 8.53434 5.70063 11.3984 
228 1 9.98756 7.112 12.8208 
237 1 8.55387 8.53698 11.3847 
229 1 11.3749 5.67336 11.3789 
230 2 12.787 7.08128 12.7856 
39 1 11.4053 8.55659 14.2388 
37 1 8.55312 8.54827 14.2285 
27 1 8.5405 5.6986 14.2274 
31 2 14.2449 8.54631 14.2378 
91 2 14.216 11.4169 2.87206 
38 1 9.97343 9.96962 1.42599 
46 1 7.13756 12.8312 1.43576 
47 1 8.51798 11.3867 0.0101976 
48 1 9.96602 12.8121 1.42912 
97 1 8.55279 11.3933 2.85222 
40 1 12.8322 9.97144 1.42864 
9 1 11.372 14.2359 0.0134749 
50 1 12.8007 12.8133 1.41213 
99 1 11.4105 11.3884 2.85153 
49 1 11.3913 11.3829 -0.000504685 
41 1 14.2351 11.3733 -0.00403897 
150 1 12.8281 12.8238 7.11269 
88 1 9.9781 9.97238 4.26801 
149 1 11.3885 11.3899 5.70989 
98 1 9.97409 12.8175 4.27162 
147 1 8.53888 11.3908 5.69596 
90 1 12.7979 9.95018 4.28717 
100 1 12.7965 12.8242 4.29887 
141 1 14.2346 11.3757 5.68468 
107 1 8.53309 14.2359 5.68862 
138 1 9.96189 9.97323 7.11704 
146 1 7.12224 12.82 7.11964 
140 1 12.8235 9.96143 7.14341 
200 1 12.8071 12.7921 9.95779 
159 1 11.4006 14.2598 8.54159 
157 1 8.53251 14.2316 8.57206 
190 2 12.7869 9.93745 9.93449 
186 1 7.12964 9.97632 9.9862 
188 1 9.99046 9.98248 9.96701 
199 1 11.3833 11.4032 8.51631 
197 1 8.53718 11.3837 8.53522 
198 1 9.97822 12.8018 9.95004 
148 1 9.95812 12.826 7.12034 
236 1 7.13638 9.96049 12.796 
238 1 9.9585 9.98055 12.8157 
250 1 12.811 12.8553 12.8424 
247 1 8.55513 11.4179 11.3863 
248 1 9.97243 12.795 12.8329 
240 1 12.8001 9.94557 12.7857 
249 1 11.422 11.4016 11.403 
246 1 7.12035 12.8136 12.8179 
209 1 11.3582 14.2211 11.386 
241 2 14.2683 11.4231 11.4292 