ITEM: TIMESTEP
19
ITEM: NUMBER OF ATOMS
53
ITEM: BOX BOUNDS xy xz yz pp pp pp
0.0000000000000000e+00 8.5443479999999994e+00 0.0000000000000000e+00
0.0000000000000000e+00 8.5443479999999994e+00 0.0000000000000000e+00
0.0000000000000000e+00 8.5443479999999994e+00 0.0000000000000000e+00
ITEM: ATOMS id x y z c_1 c_2 c_3 
1 0.0113399 0.0113399 0.0113399 -4.12281 0 14 
2 0.00411687 0.00411687 2.84812 -4.12051 0 14 
3 0.0113399 0.0113399 5.68489 -4.12281 0 14 
4 0.00411687 2.84812 0.00411687 -4.12051 0 14 
5 8.50786 2.84812 2.84812 -3.99171 0 13 
6 0.00411687 2.84812 5.69212 -4.12051 0 14 
7 0.0113399 5.68489 0.0113399 -4.12281 0 14 
8 0.00411687 5.69212 2.84812 -4.12051 0 14 
9 0.0113399 5.68489 5.68489 -4.12281 0 14 
10 2.84812 0.00411687 0.00411687 -4.12051 0 14 
11 2.84812 8.50786 2.84812 -3.99171 0 13 
12 2.84812 0.00411687 5.69212 -4.12051 0 14 
13 2.84812 2.84812 8.50786 -3.99171 0 13 
15 2.84812 2.84812 5.73272 -3.99171 0 13 
16 2.84812 5.69212 0.00411687 -4.12051 0 14 
17 2.84812 5.73272 2.84812 -3.99171 0 13 
18 2.84812 5.69212 5.69212 -4.12051 0 14 
19 5.68489 0.0113399 0.0113399 -4.12281 0 14 
20 5.69212 0.00411687 2.84812 -4.12051 0 14 
21 5.68489 0.0113399 5.68489 -4.12281 0 14 
22 5.69212 2.84812 0.00411687 -4.12051 0 14 
23 5.73272 2.84812 2.84812 -3.99171 0 13 
24 5.69212 2.84812 5.69212 -4.12051 0 14 
25 5.68489 5.68489 0.0113399 -4.12281 0 14 
26 5.69212 5.69212 2.84812 -4.12051 0 14 
27 5.68489 5.68489 5.68489 -4.12281 0 14 
28 1.4645 1.4645 1.4645 -4.03482 0 13 
29 1.4645 1.4645 4.23173 -4.03482 0 13 
30 1.4189 1.4189 7.12029 -4.10137 0 14 
31 1.4645 4.23173 1.4645 -4.03482 0 13 
32 1.4645 4.23173 4.23173 -4.03482 0 13 
33 1.4189 4.27733 7.12029 -4.10137 0 14 
34 1.4189 7.12029 1.4189 -4.10137 0 14 
35 1.4189 7.12029 4.27733 -4.10137 0 14 
36 1.42222 7.12029 7.12029 -4.12368 0 14 
37 4.23173 1.4645 1.4645 -4.03482 0 13 
38 4.23173 1.4645 4.23173 -4.03482 0 13 
39 4.27733 1.4189 7.12029 -4.10137 0 14 
40 4.23173 4.23173 1.4645 -4.03482 0 13 
41 4.23173 4.23173 4.23173 -4.03482 0 13 
42 4.27733 4.27733 7.12029 -4.10137 0 14 
43 4.27733 7.12029 1.4189 -4.10137 0 14 
44 4.27733 7.12029 4.27733 -4.10137 0 14 
45 4.27401 7.12029 7.12029 -4.12368 0 14 
46 7.12029 1.4189 1.4189 -4.10137 0 14 
47 7.12029 1.4189 4.27733 -4.10137 0 14 
48 7.12029 1.42222 7.12029 -4.12368 0 14 
49 7.12029 4.27733 1.4189 -4.10137 0 14 
50 7.12029 4.27733 4.27733 -4.10137 0 14 
51 7.12029 4.27401 7.12029 -4.12368 0 14 
52 7.12029 7.12029 1.42222 -4.12368 0 14 
53 7.12029 7.12029 4.27401 -4.12368 0 14 
54 7.12029 7.12029 7.12029 -4.15366 0 14 
ITEM: TIMESTEP
20
ITEM: NUMBER OF ATOMS
53
ITEM: BOX BOUNDS xy xz yz pp pp pp
0.0000000000000000e+00 8.5443479999999994e+00 0.0000000000000000e+00
0.0000000000000000e+00 8.5443479999999994e+00 0.0000000000000000e+00
0.0000000000000000e+00 8.5443479999999994e+00 0.0000000000000000e+00
ITEM: ATOMS id x y z c_1 c_2 c_3 
1 0.0113399 0.0113399 0.0113399 -4.12281 4.49381e-15 14 
2 0.00411687 0.00411687 2.84812 -4.12051 5.62506e-14 14 
3 0.0113399 0.0113399 5.68489 -4.12281 4.49381e-15 14 
4 0.00411687 2.84812 0.00411687 -4.12051 5.62506e-14 14 
5 8.50786 2.84812 2.84812 -3.99171 8.80239e-14 13 
6 0.00411687 2.84812 5.69212 -4.12051 5.62506e-14 14 
7 0.0113399 5.68489 0.0113399 -4.12281 4.49381e-15 14 
8 0.00411687 5.69212 2.84812 -4.12051 5.62506e-14 14 
9 0.0113399 5.68489 5.68489 -4.12281 4.49381e-15 14 
10 2.84812 0.00411687 0.00411687 -4.12051 5.62506e-14 14 
11 2.84812 8.50786 2.84812 -3.99171 8.80239e-14 13 
12 2.84812 0.00411687 5.69212 -4.12051 5.62506e-14 14 
13 2.84812 2.84812 8.50786 -3.99171 8.80239e-14 13 
15 2.84812 2.84812 5.73272 -3.99171 8.80239e-14 13 
16 2.84812 5.69212 0.00411687 -4.12051 5.62506e-14 14 
17 2.84812 5.73272 2.84812 -3.99171 8.80239e-14 13 
18 2.84812 5.69212 5.69212 -4.12051 5.62506e-14 14 
19 5.68489 0.0113399 0.0113399 -4.12281 4.49381e-15 14 
20 5.69212 0.00411687 2.84812 -4.12051 5.62506e-14 14 
21 5.68489 0.0113399 5.68489 -4.12281 4.49381e-15 14 
22 5.69212 2.84812 0.00411687 -4.12051 5.62506e-14 14 
23 5.73272 2.84812 2.84812 -3.99171 8.80239e-14 13 
24 5.69212 2.84812 5.69212 -4.12051 5.62506e-14 14 
25 5.68489 5.68489 0.0113399 -4.12281 4.49381e-15 14 
26 5.69212 5.69212 2.84812 -4.12051 5.62506e-14 14 
27 5.68489 5.68489 5.68489 -4.12281 4.49381e-15 14 
28 1.4645 1.4645 1.4645 -4.03482 2.47002e-14 13 
29 1.4645 1.4645 4.23173 -4.03482 2.47002e-14 13 
30 1.4189 1.4189 7.12029 -4.10137 1.01279e-15 14 
31 1.4645 4.23173 1.4645 -4.03482 2.47002e-14 13 
32 1.4645 4.23173 4.23173 -4.03482 2.47002e-14 13 
33 1.4189 4.27733 7.12029 -4.10137 1.01279e-15 14 
34 1.4189 7.12029 1.4189 -4.10137 1.01279e-15 14 
35 1.4189 7.12029 4.27733 -4.10137 1.01279e-15 14 
36 1.42222 7.12029 7.12029 -4.12368 2.76887e-14 14 
37 4.23173 1.4645 1.4645 -4.03482 2.47002e-14 13 
38 4.23173 1.4645 4.23173 -4.03482 2.47002e-14 13 
39 4.27733 1.4189 7.12029 -4.10137 1.01279e-15 14 
40 4.23173 4.23173 1.4645 -4.03482 2.47002e-14 13 
41 4.23173 4.23173 4.23173 -4.03482 2.47002e-14 13 
42 4.27733 4.27733 7.12029 -4.10137 1.01279e-15 14 
43 4.27733 7.12029 1.4189 -4.10137 1.01279e-15 14 
44 4.27733 7.12029 4.27733 -4.10137 1.01279e-15 14 
45 4.27401 7.12029 7.12029 -4.12368 2.76887e-14 14 
46 7.12029 1.4189 1.4189 -4.10137 1.01279e-15 14 
47 7.12029 1.4189 4.27733 -4.10137 1.01279e-15 14 
48 7.12029 1.42222 7.12029 -4.12368 2.76887e-14 14 
49 7.12029 4.27733 1.4189 -4.10137 1.01279e-15 14 
50 7.12029 4.27733 4.27733 -4.10137 1.01279e-15 14 
51 7.12029 4.27401 7.12029 -4.12368 2.76887e-14 14 
52 7.12029 7.12029 1.42222 -4.12368 2.76887e-14 14 
53 7.12029 7.12029 4.27401 -4.12368 2.76887e-14 14 
54 7.12029 7.12029 7.12029 -4.15366 6.68511e-32 14 
ITEM: TIMESTEP
21
ITEM: NUMBER OF ATOMS
53
ITEM: BOX BOUNDS xy xz yz pp pp pp
0.0000000000000000e+00 8.5443479999999994e+00 0.0000000000000000e+00
0.0000000000000000e+00 8.5443479999999994e+00 0.0000000000000000e+00
0.0000000000000000e+00 8.5443479999999994e+00 0.0000000000000000e+00
ITEM: ATOMS id x y z c_1 c_2 c_3 
1 0.0113399 0.0113399 0.0113399 -4.12281 1.6142e-14 14 
2 0.0041169 0.0041169 2.84812 -4.12051 2.12884e-13 14 
3 0.0113399 0.0113399 5.68489 -4.12281 1.6142e-14 14 
4 0.0041169 2.84812 0.0041169 -4.12051 2.12884e-13 14 
5 8.50786 2.84812 2.84812 -3.99171 3.37759e-13 13 
6 0.0041169 2.84812 5.69212 -4.12051 2.12884e-13 14 
7 0.0113399 5.68489 0.0113399 -4.12281 1.6142e-14 14 
8 0.0041169 5.69212 2.84812 -4.12051 2.12884e-13 14 
9 0.0113399 5.68489 5.68489 -4.12281 1.6142e-14 14 
10 2.84812 0.0041169 0.0041169 -4.12051 2.12884e-13 14 
11 2.84812 8.50786 2.84812 -3.99171 3.37759e-13 13 
12 2.84812 0.0041169 5.69212 -4.12051 2.12884e-13 14 
13 2.84812 2.84812 8.50786 -3.99171 3.37759e-13 13 
15 2.84812 2.84812 5.73272 -3.99171 3.37759e-13 13 
16 2.84812 5.69212 0.0041169 -4.12051 2.12884e-13 14 
17 2.84812 5.73272 2.84812 -3.99171 3.37759e-13 13 
18 2.84812 5.69212 5.69212 -4.12051 2.12884e-13 14 
19 5.68489 0.0113399 0.0113399 -4.12281 1.6142e-14 14 
20 5.69212 0.0041169 2.84812 -4.12051 2.12884e-13 14 
21 5.68489 0.0113399 5.68489 -4.12281 1.6142e-14 14 
22 5.69212 2.84812 0.0041169 -4.12051 2.12884e-13 14 
23 5.73272 2.84812 2.84812 -3.99171 3.37759e-13 13 
24 5.69212 2.84812 5.69212 -4.12051 2.12884e-13 14 
25 5.68489 5.68489 0.0113399 -4.12281 1.6142e-14 14 
26 5.69212 5.69212 2.84812 -4.12051 2.12884e-13 14 
27 5.68489 5.68489 5.68489 -4.12281 1.6142e-14 14 
28 1.4645 1.4645 1.4645 -4.03482 9.83507e-14 13 
29 1.4645 1.4645 4.23173 -4.03482 9.83507e-14 13 
30 1.4189 1.4189 7.12029 -4.10137 3.26138e-15 14 
31 1.4645 4.23173 1.4645 -4.03482 9.83507e-14 13 
32 1.4645 4.23173 4.23173 -4.03482 9.83507e-14 13 
33 1.4189 4.27733 7.12029 -4.10137 3.26138e-15 14 
34 1.4189 7.12029 1.4189 -4.10137 3.26138e-15 14 
35 1.4189 7.12029 4.27733 -4.10137 3.26138e-15 14 
36 1.42222 7.12029 7.12029 -4.12368 1.00528e-13 14 
37 4.23173 1.4645 1.4645 -4.03482 9.83507e-14 13 
38 4.23173 1.4645 4.23173 -4.03482 9.83507e-14 13 
39 4.27733 1.4189 7.12029 -4.10137 3.26138e-15 14 
40 4.23173 4.23173 1.4645 -4.03482 9.83507e-14 13 
41 4.23173 4.23173 4.23173 -4.03482 9.83507e-14 13 
42 4.27733 4.27733 7.12029 -4.10137 3.26138e-15 14 
43 4.27733 7.12029 1.4189 -4.10137 3.26138e-15 14 
44 4.27733 7.12029 4.27733 -4.10137 3.26138e-15 14 
45 4.27401 7.12029 7.12029 -4.12368 1.00528e-13 14 
46 7.12029 1.4189 1.4189 -4.10137 3.26138e-15 14 
47 7.12029 1.4189 4.27733 -4.10137 3.26138e-15 14 
48 7.12029 1.42222 7.12029 -4.12368 1.00528e-13 14 
49 7.12029 4.27733 1.4189 -4.10137 3.26138e-15 14 
50 7.12029 4.27733 4.27733 -4.10137 3.26138e-15 14 
51 7.12029 4.27401 7.12029 -4.12368 1.00528e-13 14 
52 7.12029 7.12029 1.42222 -4.12368 1.00528e-13 14 
53 7.12029 7.12029 4.27401 -4.12368 1.00528e-13 14 
54 7.12029 7.12029 7.12029 -4.15366 1.60047e-31 14 
ITEM: TIMESTEP
22
ITEM: NUMBER OF ATOMS
53
ITEM: BOX BOUNDS xy xz yz pp pp pp
0.0000000000000000e+00 8.5443479999999994e+00 0.0000000000000000e+00
0.0000000000000000e+00 8.5443479999999994e+00 0.0000000000000000e+00
0.0000000000000000e+00 8.5443479999999994e+00 0.0000000000000000e+00
ITEM: ATOMS id x y z c_1 c_2 c_3 
1 0.0113399 0.0113399 0.0113399 -4.12281 3.01317e-14 14 
2 0.00411693 0.00411693 2.84812 -4.12051 4.36372e-13 14 
3 0.0113399 0.0113399 5.68489 -4.12281 3.01317e-14 14 
4 0.00411693 2.84812 0.00411693 -4.12051 4.36372e-13 14 
5 8.50786 2.84812 2.84812 -3.99171 7.08894e-13 13 
6 0.00411693 2.84812 5.69212 -4.12051 4.36372e-13 14 
7 0.0113399 5.68489 0.0113399 -4.12281 3.01317e-14 14 
8 0.00411693 5.69212 2.84812 -4.12051 4.36372e-13 14 
9 0.0113399 5.68489 5.68489 -4.12281 3.01317e-14 14 
10 2.84812 0.00411693 0.00411693 -4.12051 4.36372e-13 14 
11 2.84812 8.50786 2.84812 -3.99171 7.08894e-13 13 
12 2.84812 0.00411693 5.69212 -4.12051 4.36372e-13 14 
13 2.84812 2.84812 8.50786 -3.99171 7.08894e-13 13 
15 2.84812 2.84812 5.73272 -3.99171 7.08894e-13 13 
16 2.84812 5.69212 0.00411693 -4.12051 4.36372e-13 14 
17 2.84812 5.73272 2.84812 -3.99171 7.08894e-13 13 
18 2.84812 5.69212 5.69212 -4.12051 4.36372e-13 14 
19 5.68489 0.0113399 0.0113399 -4.12281 3.01317e-14 14 
20 5.69212 0.00411693 2.84812 -4.12051 4.36372e-13 14 
21 5.68489 0.0113399 5.68489 -4.12281 3.01317e-14 14 
22 5.69212 2.84812 0.00411693 -4.12051 4.36372e-13 14 
23 5.73272 2.84812 2.84812 -3.99171 7.08894e-13 13 
24 5.69212 2.84812 5.69212 -4.12051 4.36372e-13 14 
25 5.68489 5.68489 0.0113399 -4.12281 3.01317e-14 14 
26 5.69212 5.69212 2.84812 -4.12051 4.36372e-13 14 
27 5.68489 5.68489 5.68489 -4.12281 3.01317e-14 14 
28 1.4645 1.4645 1.4645 -4.03482 2.19462e-13 13 
29 1.4645 1.4645 4.23173 -4.03482 2.19462e-13 13 
30 1.4189 1.4189 7.12029 -4.10137 4.88264e-15 14 
31 1.4645 4.23173 1.4645 -4.03482 2.19462e-13 13 
32 1.4645 4.23173 4.23173 -4.03482 2.19462e-13 13 
33 1.4189 4.27733 7.12029 -4.10137 4.88264e-15 14 
34 1.4189 7.12029 1.4189 -4.10137 4.88264e-15 14 
35 1.4189 7.12029 4.27733 -4.10137 4.88264e-15 14 
36 1.42222 7.12029 7.12029 -4.12368 1.91391e-13 14 
37 4.23173 1.4645 1.4645 -4.03482 2.19462e-13 13 
38 4.23173 1.4645 4.23173 -4.03482 2.19462e-13 13 
39 4.27733 1.4189 7.12029 -4.10137 4.88264e-15 14 
40 4.23173 4.23173 1.4645 -4.03482 2.19462e-13 13 
41 4.23173 4.23173 4.23173 -4.03482 2.19462e-13 13 
42 4.27733 4.27733 7.12029 -4.10137 4.88264e-15 14 
43 4.27733 7.12029 1.4189 -4.10137 4.88264e-15 14 
44 4.27733 7.12029 4.27733 -4.10137 4.88264e-15 14 
45 4.27401 7.12029 7.12029 -4.12368 1.91391e-13 14 
46 7.12029 1.4189 1.4189 -4.10137 4.88264e-15 14 
47 7.12029 1.4189 4.27733 -4.10137 4.88264e-15 14 
48 7.12029 1.42222 7.12029 -4.12368 1.91391e-13 14 
49 7.12029 4.27733 1.4189 -4.10137 4.88264e-15 14 
50 7.12029 4.27733 4.27733 -4.10137 4.88264e-15 14 
51 7.12029 4.27401 7.12029 -4.12368 1.91391e-13 14 
52 7.12029 7.12029 1.42222 -4.12368 1.91391e-13 14 
53 7.12029 7.12029 4.27401 -4.12368 1.91391e-13 14 
54 7.12029 7.12029 7.12029 -4.15366 3.66879e-31 14 
ITEM: TIMESTEP
23
ITEM: NUMBER OF ATOMS
53
ITEM: BOX BOUNDS xy xz yz pp pp pp
0.0000000000000000e+00 8.5443479999999994e+00 0.0000000000000000e+00
0.0000000000000000e+00 8.5443479999999994e+00 0.0000000000000000e+00
0.0000000000000000e+00 8.5443479999999994e+00 0.0000000000000000e+00
ITEM: ATOMS id x y z c_1 c_2 c_3 
1 0.0113399 0.0113399 0.0113399 -4.12281 4.05016e-14 14 
2 0.00411698 0.00411698 2.84812 -4.12051 6.79543e-13 14 
3 0.0113399 0.0113399 5.68489 -4.12281 4.05016e-14 14 
4 0.00411698 2.84812 0.00411698 -4.12051 6.79543e-13 14 
5 8.50786 2.84812 2.84812 -3.99171 1.14266e-12 13 
6 0.00411698 2.84812 5.69212 -4.12051 6.79543e-13 14 
7 0.0113399 5.68489 0.0113399 -4.12281 4.05016e-14 14 
8 0.00411698 5.69212 2.84812 -4.12051 6.79543e-13 14 
9 0.0113399 5.68489 5.68489 -4.12281 4.05016e-14 14 
10 2.84812 0.00411698 0.00411698 -4.12051 6.79543e-13 14 
11 2.84812 8.50786 2.84812 -3.99171 1.14266e-12 13 
12 2.84812 0.00411698 5.69212 -4.12051 6.79543e-13 14 
13 2.84812 2.84812 8.50786 -3.99171 1.14266e-12 13 
15 2.84812 2.84812 5.73272 -3.99171 1.14266e-12 13 
16 2.84812 5.69212 0.00411698 -4.12051 6.79543e-13 14 
17 2.84812 5.73272 2.84812 -3.99171 1.14266e-12 13 
18 2.84812 5.69212 5.69212 -4.12051 6.79543e-13 14 
19 5.68489 0.0113399 0.0113399 -4.12281 4.05016e-14 14 
20 5.69212 0.00411698 2.84812 -4.12051 6.79543e-13 14 
21 5.68489 0.0113399 5.68489 -4.12281 4.05016e-14 14 
22 5.69212 2.84812 0.00411698 -4.12051 6.79543e-13 14 
23 5.73272 2.84812 2.84812 -3.99171 1.14266e-12 13 
24 5.69212 2.84812 5.69212 -4.12051 6.79543e-13 14 
25 5.68489 5.68489 0.0113399 -4.12281 4.05016e-14 14 
26 5.69212 5.69212 2.84812 -4.12051 6.79543e-13 14 
27 5.68489 5.68489 5.68489 -4.12281 4.05016e-14 14 
28 1.4645 1.4645 1.4645 -4.03482 3.85111e-13 13 
29 1.4645 1.4645 4.23173 -4.03482 3.85111e-13 13 
30 1.4189 1.4189 7.12029 -4.10137 4.25549e-15 14 
31 1.4645 4.23173 1.4645 -4.03482 3.85111e-13 13 
32 1.4645 4.23173 4.23173 -4.03482 3.85111e-13 13 
33 1.4189 4.27733 7.12029 -4.10137 4.25549e-15 14 
34 1.4189 7.12029 1.4189 -4.10137 4.25549e-15 14 
35 1.4189 7.12029 4.27733 -4.10137 4.25549e-15 14 
36 1.42222 7.12029 7.12029 -4.12368 2.6576e-13 14 
37 4.23173 1.4645 1.4645 -4.03482 3.85111e-13 13 
38 4.23173 1.4645 4.23173 -4.03482 3.85111e-13 13 
39 4.27733 1.4189 7.12029 -4.10137 4.25549e-15 14 
40 4.23173 4.23173 1.4645 -4.03482 3.85111e-13 13 
41 4.23173 4.23173 4.23173 -4.03482 3.85111e-13 13 
42 4.27733 4.27733 7.12029 -4.10137 4.25549e-15 14 
43 4.27733 7.12029 1.4189 -4.10137 4.25549e-15 14 
44 4.27733 7.12029 4.27733 -4.10137 4.25549e-15 14 
45 4.27401 7.12029 7.12029 -4.12368 2.6576e-13 14 
46 7.12029 1.4189 1.4189 -4.10137 4.25549e-15 14 
47 7.12029 1.4189 4.27733 -4.10137 4.25549e-15 14 
48 7.12029 1.42222 7.12029 -4.12368 2.6576e-13 14 
49 7.12029 4.27733 1.4189 -4.10137 4.25549e-15 14 
50 7.12029 4.27733 4.27733 -4.10137 4.25549e-15 14 
51 7.12029 4.27401 7.12029 -4.12368 2.6576e-13 14 
52 7.12029 7.12029 1.42222 -4.12368 2.6576e-13 14 
53 7.12029 7.12029 4.27401 -4.12368 2.6576e-13 14 
54 7.12029 7.12029 7.12029 -4.15366 7.74052e-31 14 
ITEM: TIMESTEP
24
ITEM: NUMBER OF ATOMS
53
ITEM: BOX BOUNDS xy xz yz pp pp pp
0.0000000000000000e+00 8.5443479999999994e+00 0.0000000000000000e+00
0.0000000000000000e+00 8.5443479999999994e+00 0.0000000000000000e+00
0.0000000000000000e+00 8.5443479999999994e+00 0.0000000000000000e+00
ITEM: ATOMS id x y z c_1 c_2 c_3 
1 0.0113399 0.0113399 0.0113399 -4.12281 4.2507e-14 14 
2 0.00411704 0.00411704 2.84812 -4.12051 8.92339e-13 14 
3 0.0113399 0.0113399 5.68489 -4.12281 4.2507e-14 14 
4 0.00411704 2.84812 0.00411704 -4.12051 8.92339e-13 14 
5 8.50786 2.84812 2.84812 -3.99171 1.57253e-12 13 
6 0.00411704 2.84812 5.69211 -4.12051 8.92339e-13 14 
7 0.0113399 5.68489 0.0113399 -4.12281 4.2507e-14 14 
8 0.00411704 5.69211 2.84812 -4.12051 8.92339e-13 14 
9 0.0113399 5.68489 5.68489 -4.12281 4.2507e-14 14 
10 2.84812 0.00411704 0.00411704 -4.12051 8.92339e-13 14 
11 2.84812 8.50786 2.84812 -3.99171 1.57253e-12 13 
12 2.84812 0.00411704 5.69211 -4.12051 8.92339e-13 14 
13 2.84812 2.84812 8.50786 -3.99171 1.57253e-12 13 
15 2.84812 2.84812 5.73272 -3.99171 1.57253e-12 13 
16 2.84812 5.69211 0.00411704 -4.12051 8.92339e-13 14 
17 2.84812 5.73272 2.84812 -3.99171 1.57253e-12 13 
18 2.84812 5.69211 5.69211 -4.12051 8.92339e-13 14 
19 5.68489 0.0113399 0.0113399 -4.12281 4.2507e-14 14 
20 5.69211 0.00411704 2.84812 -4.12051 8.92339e-13 14 
21 5.68489 0.0113399 5.68489 -4.12281 4.2507e-14 14 
22 5.69211 2.84812 0.00411704 -4.12051 8.92339e-13 14 
23 5.73272 2.84812 2.84812 -3.99171 1.57253e-12 13 
24 5.69211 2.84812 5.69211 -4.12051 8.92339e-13 14 
25 5.68489 5.68489 0.0113399 -4.12281 4.2507e-14 14 
26 5.69211 5.69211 2.84812 -4.12051 8.92339e-13 14 
27 5.68489 5.68489 5.68489 -4.12281 4.2507e-14 14 
28 1.4645 1.4645 1.4645 -4.03482 5.90371e-13 13 
29 1.4645 1.4645 4.23173 -4.03482 5.90371e-13 13 
30 1.4189 1.4189 7.12029 -4.10137 1.585e-15 14 
31 1.4645 4.23173 1.4645 -4.03482 5.90371e-13 13 
32 1.4645 4.23173 4.23173 -4.03482 5.90371e-13 13 
33 1.4189 4.27733 7.12029 -4.10137 1.585e-15 14 
34 1.4189 7.12029 1.4189 -4.10137 1.585e-15 14 
35 1.4189 7.12029 4.27733 -4.10137 1.585e-15 14 
36 1.42222 7.12029 7.12029 -4.12368 2.9415e-13 14 
37 4.23173 1.4645 1.4645 -4.03482 5.90371e-13 13 
38 4.23173 1.4645 4.23173 -4.03482 5.90371e-13 13 
39 4.27733 1.4189 7.12029 -4.10137 1.585e-15 14 
40 4.23173 4.23173 1.4645 -4.03482 5.90371e-13 13 
41 4.23173 4.23173 4.23173 -4.03482 5.90371e-13 13 
42 4.27733 4.27733 7.12029 -4.10137 1.585e-15 14 
43 4.27733 7.12029 1.4189 -4.10137 1.585e-15 14 
44 4.27733 7.12029 4.27733 -4.10137 1.585e-15 14 
45 4.27401 7.12029 7.12029 -4.12368 2.9415e-13 14 
46 7.12029 1.4189 1.4189 -4.10137 1.585e-15 14 
47 7.12029 1.4189 4.27733 -4.10137 1.585e-15 14 
48 7.12029 1.42222 7.12029 -4.12368 2.9415e-13 14 
49 7.12029 4.27733 1.4189 -4.10137 1.585e-15 14 
50 7.12029 4.27733 4.27733 -4.10137 1.585e-15 14 
51 7.12029 4.27401 7.12029 -4.12368 2.9415e-13 14 
52 7.12029 7.12029 1.42222 -4.12368 2.9415e-13 14 
53 7.12029 7.12029 4.27401 -4.12368 2.9415e-13 14 
54 7.12029 7.12029 7.12029 -4.15366 1.32594e-30 14 
ITEM: TIMESTEP
25
ITEM: NUMBER OF ATOMS
53
ITEM: BOX BOUNDS xy xz yz pp pp pp
0.0000000000000000e+00 8.5443479999999994e+00 0.0000000000000000e+00
0.0000000000000000e+00 8.5443479999999994e+00 0.0000000000000000e+00
0.0000000000000000e+00 8.5443479999999994e+00 0.0000000000000000e+00
ITEM: ATOMS id x y z c_1 c_2 c_3 
1 0.0113399 0.0113399 0.0113399 -4.12281 3.47112e-14 14 
2 0.00411711 0.00411711 2.84812 -4.12051 1.03289e-12 14 
3 0.0113399 0.0113399 5.68489 -4.12281 3.47112e-14 14 
4 0.00411711 2.84812 0.00411711 -4.12051 1.03289e-12 14 
5 8.50786 2.84812 2.84812 -3.99171 1.93594e-12 13 
6 0.00411711 2.84812 5.69211 -4.12051 1.03289e-12 14 
7 0.0113399 5.68489 0.0113399 -4.12281 3.47112e-14 14 
8 0.00411711 5.69211 2.84812 -4.12051 1.03289e-12 14 
9 0.0113399 5.68489 5.68489 -4.12281 3.47112e-14 14 
10 2.84812 0.00411711 0.00411711 -4.12051 1.03289e-12 14 
11 2.84812 8.50786 2.84812 -3.99171 1.93594e-12 13 
12 2.84812 0.00411711 5.69211 -4.12051 1.03289e-12 14 
13 2.84812 2.84812 8.50786 -3.99171 1.93594e-12 13 
15 2.84812 2.84812 5.73272 -3.99171 1.93594e-12 13 
16 2.84812 5.69211 0.00411711 -4.12051 1.03289e-12 14 
17 2.84812 5.73272 2.84812 -3.99171 1.93594e-12 13 
18 2.84812 5.69211 5.69211 -4.12051 1.03289e-12 14 
19 5.68489 0.0113399 0.0113399 -4.12281 3.47112e-14 14 
20 5.69211 0.00411711 2.84812 -4.12051 1.03289e-12 14 
21 5.68489 0.0113399 5.68489 -4.12281 3.47112e-14 14 
22 5.69211 2.84812 0.00411711 -4.12051 1.03289e-12 14 
23 5.73272 2.84812 2.84812 -3.99171 1.93594e-12 13 
24 5.69211 2.84812 5.69211 -4.12051 1.03289e-12 14 
25 5.68489 5.68489 0.0113399 -4.12281 3.47112e-14 14 
26 5.69211 5.69211 2.84812 -4.12051 1.03289e-12 14 
27 5.68489 5.68489 5.68489 -4.12281 3.47112e-14 14 
28 1.4645 1.4645 1.4645 -4.03482 8.27693e-13 13 
29 1.4645 1.4645 4.23173 -4.03482 8.27693e-13 13 
30 1.4189 1.4189 7.12029 -4.10137 6.27274e-17 14 
31 1.4645 4.23173 1.4645 -4.03482 8.27693e-13 13 
32 1.4645 4.23173 4.23173 -4.03482 8.27693e-13 13 
33 1.4189 4.27733 7.12029 -4.10137 6.27274e-17 14 
34 1.4189 7.12029 1.4189 -4.10137 6.27274e-17 14 
35 1.4189 7.12029 4.27733 -4.10137 6.27274e-17 14 
36 1.42222 7.12029 7.12029 -4.12368 2.63386e-13 14 
37 4.23173 1.4645 1.4645 -4.03482 8.27693e-13 13 
38 4.23173 1.4645 4.23173 -4.03482 8.27693e-13 13 
39 4.27733 1.4189 7.12029 -4.10137 6.27274e-17 14 
40 4.23173 4.23173 1.4645 -4.03482 8.27693e-13 13 
41 4.23173 4.23173 4.23173 -4.03482 8.27693e-13 13 
42 4.27733 4.27733 7.12029 -4.10137 6.27274e-17 14 
43 4.27733 7.12029 1.4189 -4.10137 6.27274e-17 14 
44 4.27733 7.12029 4.27733 -4.10137 6.27274e-17 14 
45 4.27401 7.12029 7.12029 -4.12368 2.63386e-13 14 
46 7.12029 1.4189 1.4189 -4.10137 6.27274e-17 14 
47 7.12029 1.4189 4.27733 -4.10137 6.27274e-17 14 
48 7.12029 1.42222 7.12029 -4.12368 2.63386e-13 14 
49 7.12029 4.27733 1.4189 -4.10137 6.27274e-17 14 
50 7.12029 4.27733 4.27733 -4.10137 6.27274e-17 14 
51 7.12029 4.27401 7.12029 -4.12368 2.63386e-13 14 
52 7.12029 7.12029 1.42222 -4.12368 2.63386e-13 14 
53 7.12029 7.12029 4.27401 -4.12368 2.63386e-13 14 
54 7.12029 7.12029 7.12029 -4.15366 1.86584e-30 14 
ITEM: TIMESTEP
26
ITEM: NUMBER OF ATOMS
53
ITEM: BOX BOUNDS xy xz yz pp pp pp
0.0000000000000000e+00 8.5443479999999994e+00 0.0000000000000000e+00
0.0000000000000000e+00 8.5443479999999994e+00 0.0000000000000000e+00
0.0000000000000000e+00 8.5443479999999994e+00 0.0000000000000000e+00
ITEM: ATOMS id x y z c_1 c_2 c_3 
1 0.0113399 0.0113399 0.0113399 -4.12281 2.00605e-14 14 
2 0.00411718 0.00411718 2.84812 -4.12051 1.0762e-12 14 
3 0.0113399 0.0113399 5.68489 -4.12281 2.00605e-14 14 
4 0.00411718 2.84812 0.00411718 -4.12051 1.0762e-12 14 
5 8.50786 2.84812 2.84812 -3.99171 2.18448e-12 13 
6 0.00411718 2.84812 5.69211 -4.12051 1.0762e-12 14 
7 0.0113399 5.68489 0.0113399 -4.12281 2.00605e-14 14 
8 0.00411718 5.69211 2.84812 -4.12051 1.0762e-12 14 
9 0.0113399 5.68489 5.68489 -4.12281 2.00605e-14 14 
10 2.84812 0.00411718 0.00411718 -4.12051 1.0762e-12 14 
11 2.84812 8.50786 2.84812 -3.99171 2.18448e-12 13 
12 2.84812 0.00411718 5.69211 -4.12051 1.0762e-12 14 
13 2.84812 2.84812 8.50786 -3.99171 2.18448e-12 13 
15 2.84812 2.84812 5.73272 -3.99171 2.18448e-12 13 
16 2.84812 5.69211 0.00411718 -4.12051 1.0762e-12 14 
17 2.84812 5.73272 2.84812 -3.99171 2.18448e-12 13 
18 2.84812 5.69211 5.69211 -4.12051 1.0762e-12 14 
19 5.68489 0.0113399 0.0113399 -4.12281 2.00605e-14 14 
20 5.69211 0.00411718 2.84812 -4.12051 1.0762e-12 14 
21 5.68489 0.0113399 5.68489 -4.12281 2.00605e-14 14 
22 5.69211 2.84812 0.00411718 -4.12051 1.0762e-12 14 
23 5.73272 2.84812 2.84812 -3.99171 2.18448e-12 13 
24 5.69211 2.84812 5.69211 -4.12051 1.0762e-12 14 
25 5.68489 5.68489 0.0113399 -4.12281 2.00605e-14 14 
26 5.69211 5.69211 2.84812 -4.12051 1.0762e-12 14 
27 5.68489 5.68489 5.68489 -4.12281 2.00605e-14 14 
28 1.4645 1.4645 1.4645 -4.03482 1.08639e-12 13 
29 1.4645 1.4645 4.23173 -4.03482 1.08639e-12 13 
30 1.4189 1.4189 7.12029 -4.10137 6.00198e-15 14 
31 1.4645 4.23173 1.4645 -4.03482 1.08639e-12 13 
32 1.4645 4.23173 4.23173 -4.03482 1.08639e-12 13 
33 1.4189 4.27733 7.12029 -4.10137 6.00198e-15 14 
34 1.4189 7.12029 1.4189 -4.10137 6.00198e-15 14 
35 1.4189 7.12029 4.27733 -4.10137 6.00198e-15 14 
36 1.42222 7.12029 7.12029 -4.12369 1.82968e-13 14 
37 4.23173 1.4645 1.4645 -4.03482 1.08639e-12 13 
38 4.23173 1.4645 4.23173 -4.03482 1.08639e-12 13 
39 4.27733 1.4189 7.12029 -4.10137 6.00198e-15 14 
40 4.23173 4.23173 1.4645 -4.03482 1.08639e-12 13 
41 4.23173 4.23173 4.23173 -4.03482 1.08639e-12 13 
42 4.27733 4.27733 7.12029 -4.10137 6.00198e-15 14 
43 4.27733 7.12029 1.4189 -4.10137 6.00198e-15 14 
44 4.27733 7.12029 4.27733 -4.10137 6.00198e-15 14 
45 4.27401 7.12029 7.12029 -4.12369 1.82968e-13 14 
46 7.12029 1.4189 1.4189 -4.10137 6.00198e-15 14 
47 7.12029 1.4189 4.27733 -4.10137 6.00198e-15 14 
48 7.12029 1.42222 7.12029 -4.12369 1.82968e-13 14 
49 7.12029 4.27733 1.4189 -4.10137 6.00198e-15 14 
50 7.12029 4.27733 4.27733 -4.10137 6.00198e-15 14 
51 7.12029 4.27401 7.12029 -4.12369 1.82968e-13 14 
52 7.12029 7.12029 1.42222 -4.12369 1.82968e-13 14 
53 7.12029 7.12029 4.27401 -4.12369 1.82968e-13 14 
54 7.12029 7.12029 7.12029 -4.15366 2.14016e-30 14 
ITEM: TIMESTEP
27
ITEM: NUMBER OF ATOMS
53
ITEM: BOX BOUNDS xy xz yz pp pp pp
0.0000000000000000e+00 8.5443479999999994e+00 0.0000000000000000e+00
0.0000000000000000e+00 8.5443479999999994e+00 0.0000000000000000e+00
0.0000000000000000e+00 8.5443479999999994e+00 0.0000000000000000e+00
ITEM: ATOMS id x y z c_1 c_2 c_3 
1 0.0113399 0.0113399 0.0113399 -4.12281 5.50119e-15 14 
2 0.00411724 0.00411724 2.84812 -4.12051 1.01854e-12 14 
3 0.0113399 0.0113399 5.68489 -4.12281 5.50119e-15 14 
4 0.00411724 2.84812 0.00411724 -4.12051 1.01854e-12 14 
5 8.50786 2.84812 2.84812 -3.99171 2.29086e-12 13 
6 0.00411724 2.84812 5.69211 -4.12051 1.01854e-12 14 
7 0.0113399 5.68489 0.0113399 -4.12281 5.50119e-15 14 
8 0.00411724 5.69211 2.84812 -4.12051 1.01854e-12 14 
9 0.0113399 5.68489 5.68489 -4.12281 5.50119e-15 14 
10 2.84812 0.00411724 0.00411724 -4.12051 1.01854e-12 14 
11 2.84812 8.50786 2.84812 -3.99171 2.29086e-12 13 
12 2.84812 0.00411724 5.69211 -4.12051 1.01854e-12 14 
13 2.84812 2.84812 8.50786 -3.99171 2.29086e-12 13 
15 2.84812 2.84812 5.73272 -3.99171 2.29086e-12 13 
16 2.84812 5.69211 0.00411724 -4.12051 1.01854e-12 14 
17 2.84812 5.73272 2.84812 -3.99171 2.29086e-12 13 
18 2.84812 5.69211 5.69211 -4.12051 1.01854e-12 14 
19 5.68489 0.0113399 0.0113399 -4.12281 5.50119e-15 14 
20 5.69211 0.00411724 2.84812 -4.12051 1.01854e-12 14 
21 5.68489 0.0113399 5.68489 -4.12281 5.50119e-15 14 
22 5.69211 2.84812 0.00411724 -4.12051 1.01854e-12 14 
23 5.73272 2.84812 2.84812 -3.99171 2.29086e-12 13 
24 5.69211 2.84812 5.69211 -4.12051 1.01854e-12 14 
25 5.68489 5.68489 0.0113399 -4.12281 5.50119e-15 14 
26 5.69211 5.69211 2.84812 -4.12051 1.01854e-12 14 
27 5.68489 5.68489 5.68489 -4.12281 5.50119e-15 14 
28 1.4645 1.4645 1.4645 -4.03482 1.35245e-12 13 
29 1.4645 1.4645 4.23173 -4.03482 1.35245e-12 13 
30 1.4189 1.4189 7.12029 -4.10137 2.76604e-14 14 
31 1.4645 4.23173 1.4645 -4.03482 1.35245e-12 13 
32 1.4645 4.23173 4.23173 -4.03482 1.35245e-12 13 
33 1.4189 4.27733 7.12029 -4.10137 2.76604e-14 14 
34 1.4189 7.12029 1.4189 -4.10137 2.76604e-14 14 
35 1.4189 7.12029 4.27733 -4.10137 2.76604e-14 14 
36 1.42222 7.12029 7.12029 -4.12369 8.41799e-14 14 
37 4.23173 1.4645 1.4645 -4.03482 1.35245e-12 13 
38 4.23173 1.4645 4.23173 -4.03482 1.35245e-12 13 
39 4.27733 1.4189 7.12029 -4.10137 2.76604e-14 14 
40 4.23173 4.23173 1.4645 -4.03482 1.35245e-12 13 
41 4.23173 4.23173 4.23173 -4.03482 1.35245e-12 13 
42 4.27733 4.27733 7.12029 -4.10137 2.76604e-14 14 
43 4.27733 7.12029 1.4189 -4.10137 2.76604e-14 14 
44 4.27733 7.12029 4.27733 -4.10137 2.76604e-14 14 
45 4.27401 7.12029 7.12029 -4.12369 8.41799e-14 14 
46 7.12029 1.4189 1.4189 -4.10137 2.76604e-14 14 
47 7.12029 1.4189 4.27733 -4.10137 2.76604e-14 14 
48 7.12029 1.42222 7.12029 -4.12369 8.41799e-14 14 
49 7.12029 4.27733 1.4189 -4.10137 2.76604e-14 14 
50 7.12029 4.27733 4.27733 -4.10137 2.76604e-14 14 
51 7.12029 4.27401 7.12029 -4.12369 8.41799e-14 14 
52 7.12029 7.12029 1.42222 -4.12369 8.41799e-14 14 
53 7.12029 7.12029 4.27401 -4.12369 8.41799e-14 14 
54 7.12029 7.12029 7.12029 -4.15366 2.17225e-30 14 
ITEM: TIMESTEP
28
ITEM: NUMBER OF ATOMS
53
ITEM: BOX BOUNDS xy xz yz pp pp pp
0.0000000000000000e+00 8.5443479999999994e+00 0.0000000000000000e+00
0.0000000000000000e+00 8.5443479999999994e+00 0.0000000000000000e+00
0.0000000000000000e+00 8.5443479999999994e+00 0.0000000000000000e+00
ITEM: ATOMS id x y z c_1 c_2 c_3 
1 0.0113399 0.0113399 0.0113399 -4.12281 1.47482e-16 14 
2 0.00411731 0.00411731 2.84812 -4.12051 8.7652e-13 14 
3 0.0113399 0.0113399 5.68489 -4.12281 1.47482e-16 14 
4 0.00411731 2.84812 0.00411731 -4.12051 8.7652e-13 14 
5 8.50786 2.84812 2.84812 -3.99171 2.25125e-12 13 
6 0.00411731 2.84812 5.69211 -4.12051 8.7652e-13 14 
7 0.0113399 5.68489 0.0113399 -4.12281 1.47482e-16 14 
8 0.00411731 5.69211 2.84812 -4.12051 8.7652e-13 14 
9 0.0113399 5.68489 5.68489 -4.12281 1.47482e-16 14 
10 2.84812 0.00411731 0.00411731 -4.12051 8.7652e-13 14 
11 2.84812 8.50786 2.84812 -3.99171 2.25125e-12 13 
12 2.84812 0.00411731 5.69211 -4.12051 8.7652e-13 14 
13 2.84812 2.84812 8.50786 -3.99171 2.25125e-12 13 
15 2.84812 2.84812 5.73272 -3.99171 2.25125e-12 13 
16 2.84812 5.69211 0.00411731 -4.12051 8.7652e-13 14 
17 2.84812 5.73272 2.84812 -3.99171 2.25125e-12 13 
18 2.84812 5.69211 5.69211 -4.12051 8.7652e-13 14 
19 5.68489 0.0113399 0.0113399 -4.12281 1.47482e-16 14 
20 5.69211 0.00411731 2.84812 -4.12051 8.7652e-13 14 
21 5.68489 0.0113399 5.68489 -4.12281 1.47482e-16 14 
22 5.69211 2.84812 0.00411731 -4.12051 8.7652e-13 14 
23 5.73272 2.84812 2.84812 -3.99171 2.25125e-12 13 
24 5.69211 2.84812 5.69211 -4.12051 8.7652e-13 14 
25 5.68489 5.68489 0.0113399 -4.12281 1.47482e-16 14 
26 5.69211 5.69211 2.84812 -4.12051 8.7652e-13 14 
27 5.68489 5.68489 5.68489 -4.12281 1.47482e-16 14 
28 1.4645 1.4645 1.4645 -4.03482 1.60876e-12 13 
29 1.4645 1.4645 4.23173 -4.03482 1.60876e-12 13 
30 1.4189 1.4189 7.12029 -4.10137 7.29059e-14 14 
31 1.4645 4.23173 1.4645 -4.03482 1.60876e-12 13 
32 1.4645 4.23173 4.23173 -4.03482 1.60876e-12 13 
33 1.4189 4.27733 7.12029 -4.10137 7.29059e-14 14 
34 1.4189 7.12029 1.4189 -4.10137 7.29059e-14 14 
35 1.4189 7.12029 4.27733 -4.10137 7.29059e-14 14 
36 1.42222 7.12029 7.12029 -4.12369 1.18383e-14 14 
37 4.23173 1.4645 1.4645 -4.03482 1.60876e-12 13 
38 4.23173 1.4645 4.23173 -4.03482 1.60876e-12 13 
39 4.27733 1.4189 7.12029 -4.10137 7.29059e-14 14 
40 4.23173 4.23173 1.4645 -4.03482 1.60876e-12 13 
41 4.23173 4.23173 4.23173 -4.03482 1.60876e-12 13 
42 4.27733 4.27733 7.12029 -4.10137 7.29059e-14 14 
43 4.27733 7.12029 1.4189 -4.10137 7.29059e-14 14 
44 4.27733 7.12029 4.27733 -4.10137 7.29059e-14 14 
45 4.27401 7.12029 7.12029 -4.12369 1.18383e-14 14 
46 7.12029 1.4189 1.4189 -4.10137 7.29059e-14 14 