ITEM: TIMESTEP
0
ITEM: NUMBER OF ATOMS
1
ITEM: BOX BOUNDS pp pp pp
0.0000000000000000e+00 4.5287780761699999e+01
0.0000000000000000e+00 4.5287780761699999e+01
0.0000000000000000e+00 4.5287780761699999e+01
ITEM: ATOMS id type x y z 
8135 3 26.8777 29.7322 18.398 
ITEM: TIMESTEP
6
ITEM: NUMBER OF ATOMS
1
ITEM: BOX BOUNDS pp pp pp
0.0000000000000000e+00 4.5287780761699999e+01
0.0000000000000000e+00 4.5287780761699999e+01
0.0000000000000000e+00 4.5287780761699999e+01
ITEM: ATOMS id type x y z 
8135 3 26.8777 29.7322 18.398 
ITEM: TIMESTEP
0
ITEM: NUMBER OF ATOMS
1
ITEM: BOX BOUNDS pp pp pp
0.0000000000000000e+00 4.5287780761699999e+01
0.0000000000000000e+00 4.5287780761699999e+01
0.0000000000000000e+00 4.5287780761699999e+01
ITEM: ATOMS id type x y z 
8135 3 26.8777 29.7322 18.398 
ITEM: TIMESTEP
1
ITEM: NUMBER OF ATOMS
1
ITEM: BOX BOUNDS pp pp pp
0.0000000000000000e+00 4.5287780761699999e+01
0.0000000000000000e+00 4.5287780761699999e+01
0.0000000000000000e+00 4.5287780761699999e+01
ITEM: ATOMS id type x y z 
8135 3 26.8777 29.7322 18.398 
ITEM: TIMESTEP
2
ITEM: NUMBER OF ATOMS
1
ITEM: BOX BOUNDS pp pp pp
0.0000000000000000e+00 4.5287780761699999e+01
0.0000000000000000e+00 4.5287780761699999e+01
0.0000000000000000e+00 4.5287780761699999e+01
ITEM: ATOMS id type x y z 
8135 3 26.8777 29.7322 18.398 
