# Converted from POSCAR to lammps format

1980 atoms
1 atom types

0.000000   28.481159   xlo xhi
0.000000   28.481159   ylo yhi
0.000000   28.481159   zlo zhi

  0.000000    0.000000    0.000000   xy xz yz

Atoms

   1  1      0.000000 0.000000 0.000000
   2  1      0.000000 0.000000 2.848116
   3  1      0.000000 0.000000 5.696232
   4  1      0.000000 0.000000 8.544348
   5  1      0.000000 0.000000 11.392464
   6  1      0.000000 0.000000 14.240580
   7  1      0.000000 0.000000 17.088696
   8  1      0.000000 0.000000 19.936811
   9  1      0.000000 0.000000 22.784927
  10  1      0.000000 0.000000 25.633043
  11  1      0.000000 2.848116 0.000000
  12  1      0.000000 2.848116 2.848116
  13  1      0.000000 2.848116 5.696232
  14  1      0.000000 2.848116 8.544348
  15  1      0.000000 2.848116 11.392464
  16  1      0.000000 2.848116 14.240580
  17  1      0.000000 2.848116 17.088696
  18  1      0.000000 2.848116 19.936811
  19  1      0.000000 2.848116 22.784927
  20  1      0.000000 2.848116 25.633043
  21  1      0.000000 5.696232 0.000000
  22  1      0.000000 5.696232 2.848116
  23  1      0.000000 5.696232 5.696232
  24  1      0.000000 5.696232 8.544348
  25  1      0.000000 5.696232 11.392464
  26  1      0.000000 5.696232 14.240580
  27  1      0.000000 5.696232 17.088696
  28  1      0.000000 5.696232 19.936811
  29  1      0.000000 5.696232 22.784927
  30  1      0.000000 5.696232 25.633043
  31  1      0.000000 8.544348 0.000000
  32  1      0.000000 8.544348 2.848116
  33  1      0.000000 8.544348 5.696232
  34  1      0.000000 8.544348 8.544348
  35  1      0.000000 8.544348 11.392464
  36  1      0.000000 8.544348 14.240580
  37  1      0.000000 8.544348 17.088696
  38  1      0.000000 8.544348 19.936811
  39  1      0.000000 8.544348 22.784927
  40  1      0.000000 8.544348 25.633043
  41  1      0.000000 11.392464 0.000000
  42  1      0.000000 11.392464 2.848116
  43  1      0.000000 11.392464 5.696232
  44  1      0.000000 11.392464 8.544348
  45  1      0.000000 11.392464 11.392464
  46  1      0.000000 11.392464 14.240580
  47  1      0.000000 11.392464 17.088696
  48  1      0.000000 11.392464 19.936811
  49  1      0.000000 11.392464 22.784927
  50  1      0.000000 11.392464 25.633043
  51  1      0.000000 14.240580 0.000000
  52  1      0.000000 14.240580 2.848116
  53  1      0.000000 14.240580 5.696232
  54  1      0.000000 14.240580 8.544348
  55  1      0.000000 14.240580 11.392464
  56  1      0.000000 14.240580 14.240580
  57  1      0.000000 14.240580 17.088696
  58  1      0.000000 14.240580 19.936811
  59  1      0.000000 14.240580 22.784927
  60  1      0.000000 14.240580 25.633043
  61  1      0.000000 17.088696 0.000000
  62  1      0.000000 17.088696 2.848116
  63  1      0.000000 17.088696 5.696232
  64  1      0.000000 17.088696 8.544348
  65  1      0.000000 17.088696 11.392464
  66  1      0.000000 17.088696 14.240580
  67  1      0.000000 17.088696 17.088696
  68  1      0.000000 17.088696 19.936811
  69  1      0.000000 17.088696 22.784927
  70  1      0.000000 17.088696 25.633043
  71  1      0.000000 19.936811 0.000000
  72  1      0.000000 19.936811 2.848116
  73  1      0.000000 19.936811 5.696232
  74  1      0.000000 19.936811 8.544348
  75  1      0.000000 19.936811 11.392464
  76  1      0.000000 19.936811 14.240580
  77  1      0.000000 19.936811 17.088696
  78  1      0.000000 19.936811 19.936811
  79  1      0.000000 19.936811 22.784927
  80  1      0.000000 19.936811 25.633043
  81  1      0.000000 22.784927 0.000000
  82  1      0.000000 22.784927 2.848116
  83  1      0.000000 22.784927 5.696232
  84  1      0.000000 22.784927 8.544348
  85  1      0.000000 22.784927 11.392464
  86  1      0.000000 22.784927 14.240580
  87  1      0.000000 22.784927 17.088696
  88  1      0.000000 22.784927 19.936811
  89  1      0.000000 22.784927 22.784927
  90  1      0.000000 22.784927 25.633043
  91  1      0.000000 25.633043 0.000000
  92  1      0.000000 25.633043 2.848116
  93  1      0.000000 25.633043 5.696232
  94  1      0.000000 25.633043 8.544348
  95  1      0.000000 25.633043 11.392464
  96  1      0.000000 25.633043 14.240580
  97  1      0.000000 25.633043 17.088696
  98  1      0.000000 25.633043 19.936811
  99  1      0.000000 25.633043 22.784927
 100  1      0.000000 25.633043 25.633043
 101  1      2.848116 0.000000 0.000000
 102  1      2.848116 0.000000 2.848116
 103  1      2.848116 0.000000 5.696232
 104  1      2.848116 0.000000 8.544348
 105  1      2.848116 0.000000 11.392464
 106  1      2.848116 0.000000 14.240580
 107  1      2.848116 0.000000 17.088696
 108  1      2.848116 0.000000 19.936811
 109  1      2.848116 0.000000 22.784927
 110  1      2.848116 0.000000 25.633043
 111  1      2.848116 2.848116 0.000000
 112  1      2.848116 2.848116 2.848116
 113  1      2.848116 2.848116 5.696232
 114  1      2.848116 2.848116 8.544348
 115  1      2.848116 2.848116 11.392464
 116  1      2.848116 2.848116 14.240580
 117  1      2.848116 2.848116 17.088696
 118  1      2.848116 2.848116 19.936811
 119  1      2.848116 2.848116 22.784927
 120  1      2.848116 2.848116 25.633043
 121  1      2.848116 5.696232 0.000000
 122  1      2.848116 5.696232 2.848116
 123  1      2.848116 5.696232 5.696232
 124  1      2.848116 5.696232 8.544348
 125  1      2.848116 5.696232 11.392464
 126  1      2.848116 5.696232 14.240580
 127  1      2.848116 5.696232 17.088696
 128  1      2.848116 5.696232 19.936811
 129  1      2.848116 5.696232 22.784927
 130  1      2.848116 5.696232 25.633043
 131  1      2.848116 8.544348 0.000000
 132  1      2.848116 8.544348 2.848116
 133  1      2.848116 8.544348 5.696232
 134  1      2.848116 8.544348 8.544348
 135  1      2.848116 8.544348 11.392464
 136  1      2.848116 8.544348 14.240580
 137  1      2.848116 8.544348 17.088696
 138  1      2.848116 8.544348 19.936811
 139  1      2.848116 8.544348 22.784927
 140  1      2.848116 8.544348 25.633043
 141  1      2.848116 11.392464 0.000000
 142  1      2.848116 11.392464 2.848116
 143  1      2.848116 11.392464 5.696232
 144  1      2.848116 11.392464 8.544348
 145  1      2.848116 11.392464 11.392464
 146  1      2.848116 11.392464 14.240580
 147  1      2.848116 11.392464 17.088696
 148  1      2.848116 11.392464 19.936811
 149  1      2.848116 11.392464 22.784927
 150  1      2.848116 11.392464 25.633043
 151  1      2.848116 14.240580 0.000000
 152  1      2.848116 14.240580 2.848116
 153  1      2.848116 14.240580 5.696232
 154  1      2.848116 14.240580 8.544348
 155  1      2.848116 14.240580 11.392464
 156  1      2.848116 14.240580 14.240580
 157  1      2.848116 14.240580 17.088696
 158  1      2.848116 14.240580 19.936811
 159  1      2.848116 14.240580 22.784927
 160  1      2.848116 14.240580 25.633043
 161  1      2.848116 17.088696 0.000000
 162  1      2.848116 17.088696 2.848116
 163  1      2.848116 17.088696 5.696232
 164  1      2.848116 17.088696 8.544348
 165  1      2.848116 17.088696 11.392464
 166  1      2.848116 17.088696 14.240580
 167  1      2.848116 17.088696 17.088696
 168  1      2.848116 17.088696 19.936811
 169  1      2.848116 17.088696 22.784927
 170  1      2.848116 17.088696 25.633043
 171  1      2.848116 19.936811 0.000000
 172  1      2.848116 19.936811 2.848116
 173  1      2.848116 19.936811 5.696232
 174  1      2.848116 19.936811 8.544348
 175  1      2.848116 19.936811 11.392464
 176  1      2.848116 19.936811 14.240580
 177  1      2.848116 19.936811 17.088696
 178  1      2.848116 19.936811 19.936811
 179  1      2.848116 19.936811 22.784927
 180  1      2.848116 19.936811 25.633043
 181  1      2.848116 22.784927 0.000000
 182  1      2.848116 22.784927 2.848116
 183  1      2.848116 22.784927 5.696232
 184  1      2.848116 22.784927 8.544348
 185  1      2.848116 22.784927 11.392464
 186  1      2.848116 22.784927 14.240580
 187  1      2.848116 22.784927 17.088696
 188  1      2.848116 22.784927 19.936811
 189  1      2.848116 22.784927 22.784927
 190  1      2.848116 22.784927 25.633043
 191  1      2.848116 25.633043 0.000000
 192  1      2.848116 25.633043 2.848116
 193  1      2.848116 25.633043 5.696232
 194  1      2.848116 25.633043 8.544348
 195  1      2.848116 25.633043 11.392464
 196  1      2.848116 25.633043 14.240580
 197  1      2.848116 25.633043 17.088696
 198  1      2.848116 25.633043 19.936811
 199  1      2.848116 25.633043 22.784927
 200  1      2.848116 25.633043 25.633043
 201  1      5.696232 0.000000 0.000000
 202  1      5.696232 0.000000 2.848116
 203  1      5.696232 0.000000 5.696232
 204  1      5.696232 0.000000 8.544348
 205  1      5.696232 0.000000 11.392464
 206  1      5.696232 0.000000 14.240580
 207  1      5.696232 0.000000 17.088696
 208  1      5.696232 0.000000 19.936811
 209  1      5.696232 0.000000 22.784927
 210  1      5.696232 0.000000 25.633043
 211  1      5.696232 2.848116 0.000000
 212  1      5.696232 2.848116 2.848116
 213  1      5.696232 2.848116 5.696232
 214  1      5.696232 2.848116 8.544348
 215  1      5.696232 2.848116 11.392464
 216  1      5.696232 2.848116 14.240580
 217  1      5.696232 2.848116 17.088696
 218  1      5.696232 2.848116 19.936811
 219  1      5.696232 2.848116 22.784927
 220  1      5.696232 2.848116 25.633043
 221  1      5.696232 5.696232 0.000000
 222  1      5.696232 5.696232 2.848116
 223  1      5.696232 5.696232 5.696232
 224  1      5.696232 5.696232 8.544348
 225  1      5.696232 5.696232 11.392464
 226  1      5.696232 5.696232 14.240580
 227  1      5.696232 5.696232 17.088696
 228  1      5.696232 5.696232 19.936811
 229  1      5.696232 5.696232 22.784927
 230  1      5.696232 5.696232 25.633043
 231  1      5.696232 8.544348 0.000000
 232  1      5.696232 8.544348 2.848116
 233  1      5.696232 8.544348 5.696232
 234  1      5.696232 8.544348 8.544348
 235  1      5.696232 8.544348 11.392464
 236  1      5.696232 8.544348 14.240580
 237  1      5.696232 8.544348 17.088696
 238  1      5.696232 8.544348 19.936811
 239  1      5.696232 8.544348 22.784927
 240  1      5.696232 8.544348 25.633043
 241  1      5.696232 11.392464 0.000000
 242  1      5.696232 11.392464 2.848116
 243  1      5.696232 11.392464 5.696232
 244  1      5.696232 11.392464 8.544348
 245  1      5.696232 11.392464 11.392464
 246  1      5.696232 11.392464 14.240580
 247  1      5.696232 11.392464 17.088696
 248  1      5.696232 11.392464 19.936811
 249  1      5.696232 11.392464 22.784927
 250  1      5.696232 11.392464 25.633043
 251  1      5.696232 14.240580 0.000000
 252  1      5.696232 14.240580 2.848116
 253  1      5.696232 14.240580 5.696232
 254  1      5.696232 14.240580 8.544348
 255  1      5.696232 14.240580 11.392464
 256  1      5.696232 14.240580 14.240580
 257  1      5.696232 14.240580 17.088696
 258  1      5.696232 14.240580 19.936811
 259  1      5.696232 14.240580 22.784927
 260  1      5.696232 14.240580 25.633043
 261  1      5.696232 17.088696 0.000000
 262  1      5.696232 17.088696 2.848116
 263  1      5.696232 17.088696 5.696232
 264  1      5.696232 17.088696 8.544348
 265  1      5.696232 17.088696 11.392464
 266  1      5.696232 17.088696 14.240580
 267  1      5.696232 17.088696 17.088696
 268  1      5.696232 17.088696 19.936811
 269  1      5.696232 17.088696 22.784927
 270  1      5.696232 17.088696 25.633043
 271  1      5.696232 19.936811 0.000000
 272  1      5.696232 19.936811 2.848116
 273  1      5.696232 19.936811 5.696232
 274  1      5.696232 19.936811 8.544348
 275  1      5.696232 19.936811 11.392464
 276  1      5.696232 19.936811 14.240580
 277  1      5.696232 19.936811 17.088696
 278  1      5.696232 19.936811 19.936811
 279  1      5.696232 19.936811 22.784927
 280  1      5.696232 19.936811 25.633043
 281  1      5.696232 22.784927 0.000000
 282  1      5.696232 22.784927 2.848116
 283  1      5.696232 22.784927 5.696232
 284  1      5.696232 22.784927 8.544348
 285  1      5.696232 22.784927 11.392464
 286  1      5.696232 22.784927 14.240580
 287  1      5.696232 22.784927 17.088696
 288  1      5.696232 22.784927 19.936811
 289  1      5.696232 22.784927 22.784927
 290  1      5.696232 22.784927 25.633043
 291  1      5.696232 25.633043 0.000000
 292  1      5.696232 25.633043 2.848116
 293  1      5.696232 25.633043 5.696232
 294  1      5.696232 25.633043 8.544348
 295  1      5.696232 25.633043 11.392464
 296  1      5.696232 25.633043 14.240580
 297  1      5.696232 25.633043 17.088696
 298  1      5.696232 25.633043 19.936811
 299  1      5.696232 25.633043 22.784927
 300  1      5.696232 25.633043 25.633043
 301  1      8.544348 0.000000 0.000000
 302  1      8.544348 0.000000 2.848116
 303  1      8.544348 0.000000 5.696232
 304  1      8.544348 0.000000 8.544348
 305  1      8.544348 0.000000 11.392464
 306  1      8.544348 0.000000 14.240580
 307  1      8.544348 0.000000 17.088696
 308  1      8.544348 0.000000 19.936811
 309  1      8.544348 0.000000 22.784927
 310  1      8.544348 0.000000 25.633043
 311  1      8.544348 2.848116 0.000000
 312  1      8.544348 2.848116 2.848116
 313  1      8.544348 2.848116 5.696232
 314  1      8.544348 2.848116 8.544348
 315  1      8.544348 2.848116 11.392464
 316  1      8.544348 2.848116 14.240580
 317  1      8.544348 2.848116 17.088696
 318  1      8.544348 2.848116 19.936811
 319  1      8.544348 2.848116 22.784927
 320  1      8.544348 2.848116 25.633043
 321  1      8.544348 5.696232 0.000000
 322  1      8.544348 5.696232 2.848116
 323  1      8.544348 5.696232 5.696232
 324  1      8.544348 5.696232 8.544348
 325  1      8.544348 5.696232 11.392464
 326  1      8.544348 5.696232 14.240580
 327  1      8.544348 5.696232 17.088696
 328  1      8.544348 5.696232 19.936811
 329  1      8.544348 5.696232 22.784927
 330  1      8.544348 5.696232 25.633043
 331  1      8.544348 8.544348 0.000000
 332  1      8.544348 8.544348 2.848116
 333  1      8.544348 8.544348 5.696232
 334  1      8.544348 8.544348 8.544348
 335  1      8.544348 8.544348 11.392464
 336  1      8.544348 8.544348 14.240580
 337  1      8.544348 8.544348 17.088696
 338  1      8.544348 8.544348 19.936811
 339  1      8.544348 8.544348 22.784927
 340  1      8.544348 8.544348 25.633043
 341  1      8.544348 11.392464 0.000000
 342  1      8.544348 11.392464 2.848116
 343  1      8.544348 11.392464 5.696232
 344  1      8.544348 11.392464 8.544348
 345  1      8.544348 11.392464 11.392464
 346  1      8.544348 11.392464 14.240580
 347  1      8.544348 11.392464 17.088696
 348  1      8.544348 11.392464 19.936811
 349  1      8.544348 11.392464 22.784927
 350  1      8.544348 11.392464 25.633043
 351  1      8.544348 14.240580 0.000000
 352  1      8.544348 14.240580 2.848116
 353  1      8.544348 14.240580 5.696232
 354  1      8.544348 14.240580 8.544348
 355  1      8.544348 14.240580 11.392464
 356  1      8.544348 14.240580 14.240580
 357  1      8.544348 14.240580 17.088696
 358  1      8.544348 14.240580 19.936811
 359  1      8.544348 14.240580 22.784927
 360  1      8.544348 14.240580 25.633043
 361  1      8.544348 17.088696 0.000000
 362  1      8.544348 17.088696 2.848116
 363  1      8.544348 17.088696 5.696232
 364  1      8.544348 17.088696 8.544348
 365  1      8.544348 17.088696 11.392464
 366  1      8.544348 17.088696 14.240580
 367  1      8.544348 17.088696 17.088696
 368  1      8.544348 17.088696 19.936811
 369  1      8.544348 17.088696 22.784927
 370  1      8.544348 17.088696 25.633043
 371  1      8.544348 19.936811 0.000000
 372  1      8.544348 19.936811 2.848116
 373  1      8.544348 19.936811 5.696232
 374  1      8.544348 19.936811 8.544348
 375  1      8.544348 19.936811 11.392464
 376  1      8.544348 19.936811 14.240580
 377  1      8.544348 19.936811 17.088696
 378  1      8.544348 19.936811 19.936811
 379  1      8.544348 19.936811 22.784927
 380  1      8.544348 19.936811 25.633043
 381  1      8.544348 22.784927 0.000000
 382  1      8.544348 22.784927 2.848116
 383  1      8.544348 22.784927 5.696232
 384  1      8.544348 22.784927 8.544348
 385  1      8.544348 22.784927 11.392464
 386  1      8.544348 22.784927 14.240580
 387  1      8.544348 22.784927 17.088696
 388  1      8.544348 22.784927 19.936811
 389  1      8.544348 22.784927 22.784927
 390  1      8.544348 22.784927 25.633043
 391  1      8.544348 25.633043 0.000000
 392  1      8.544348 25.633043 2.848116
 393  1      8.544348 25.633043 5.696232
 394  1      8.544348 25.633043 8.544348
 395  1      8.544348 25.633043 11.392464
 396  1      8.544348 25.633043 14.240580
 397  1      8.544348 25.633043 17.088696
 398  1      8.544348 25.633043 19.936811
 399  1      8.544348 25.633043 22.784927
 400  1      8.544348 25.633043 25.633043
 401  1      11.392464 0.000000 0.000000
 402  1      11.392464 0.000000 2.848116
 403  1      11.392464 0.000000 5.696232
 404  1      11.392464 0.000000 8.544348
 405  1      11.392464 0.000000 11.392464
 406  1      11.392464 0.000000 14.240580
 407  1      11.392464 0.000000 17.088696
 408  1      11.392464 0.000000 19.936811
 409  1      11.392464 0.000000 22.784927
 410  1      11.392464 0.000000 25.633043
 411  1      11.392464 2.848116 0.000000
 412  1      11.392464 2.848116 2.848116
 413  1      11.392464 2.848116 5.696232
 414  1      11.392464 2.848116 8.544348
 415  1      11.392464 2.848116 11.392464
 416  1      11.392464 2.848116 14.240580
 417  1      11.392464 2.848116 17.088696
 418  1      11.392464 2.848116 19.936811
 419  1      11.392464 2.848116 22.784927
 420  1      11.392464 2.848116 25.633043
 421  1      11.392464 5.696232 0.000000
 422  1      11.392464 5.696232 2.848116
 423  1      11.392464 5.696232 5.696232
 424  1      11.392464 5.696232 8.544348
 425  1      11.392464 5.696232 11.392464
 426  1      11.392464 5.696232 14.240580
 427  1      11.392464 5.696232 17.088696
 428  1      11.392464 5.696232 19.936811
 429  1      11.392464 5.696232 22.784927
 430  1      11.392464 5.696232 25.633043
 431  1      11.392464 8.544348 0.000000
 432  1      11.392464 8.544348 2.848116
 433  1      11.392464 8.544348 5.696232
 434  1      11.392464 8.544348 8.544348
 435  1      11.392464 8.544348 11.392464
 436  1      11.392464 8.544348 14.240580
 437  1      11.392464 8.544348 17.088696
 438  1      11.392464 8.544348 19.936811
 439  1      11.392464 8.544348 22.784927
 440  1      11.392464 8.544348 25.633043
 441  1      11.392464 11.392464 0.000000
 442  1      11.392464 11.392464 2.848116
 443  1      11.392464 11.392464 5.696232
 444  1      11.392464 11.392464 8.544348
 445  1      11.392464 11.392464 11.392464
 446  1      11.392464 11.392464 14.240580
 447  1      11.392464 11.392464 17.088696
 448  1      11.392464 11.392464 19.936811
 449  1      11.392464 11.392464 22.784927
 450  1      11.392464 11.392464 25.633043
 451  1      11.392464 14.240580 0.000000
 452  1      11.392464 14.240580 2.848116
 453  1      11.392464 14.240580 5.696232
 454  1      11.392464 14.240580 8.544348
 455  1      11.392464 14.240580 11.392464
 456  1      11.392464 14.240580 14.240580
 457  1      11.392464 14.240580 17.088696
 458  1      11.392464 14.240580 19.936811
 459  1      11.392464 14.240580 22.784927
 460  1      11.392464 14.240580 25.633043
 461  1      11.392464 17.088696 0.000000
 462  1      11.392464 17.088696 2.848116
 463  1      11.392464 17.088696 5.696232
 464  1      11.392464 17.088696 8.544348
 465  1      11.392464 17.088696 11.392464
 466  1      11.392464 17.088696 14.240580
 467  1      11.392464 17.088696 17.088696
 468  1      11.392464 17.088696 19.936811
 469  1      11.392464 17.088696 22.784927
 470  1      11.392464 17.088696 25.633043
 471  1      11.392464 19.936811 0.000000
 472  1      11.392464 19.936811 2.848116
 473  1      11.392464 19.936811 5.696232
 474  1      11.392464 19.936811 8.544348
 475  1      11.392464 19.936811 11.392464
 476  1      11.392464 19.936811 14.240580
 477  1      11.392464 19.936811 17.088696
 478  1      11.392464 19.936811 19.936811
 479  1      11.392464 19.936811 22.784927
 480  1      11.392464 19.936811 25.633043
 481  1      11.392464 22.784927 0.000000
 482  1      11.392464 22.784927 2.848116
 483  1      11.392464 22.784927 5.696232
 484  1      11.392464 22.784927 8.544348
 485  1      11.392464 22.784927 11.392464
 486  1      11.392464 22.784927 14.240580
 487  1      11.392464 22.784927 17.088696
 488  1      11.392464 22.784927 19.936811
 489  1      11.392464 22.784927 22.784927
 490  1      11.392464 22.784927 25.633043
 491  1      11.392464 25.633043 0.000000
 492  1      11.392464 25.633043 2.848116
 493  1      11.392464 25.633043 5.696232
 494  1      11.392464 25.633043 8.544348
 495  1      11.392464 25.633043 11.392464
 496  1      11.392464 25.633043 14.240580
 497  1      11.392464 25.633043 17.088696
 498  1      11.392464 25.633043 19.936811
 499  1      11.392464 25.633043 22.784927
 500  1      11.392464 25.633043 25.633043
 501  1      14.240580 0.000000 0.000000
 502  1      14.240580 0.000000 2.848116
 503  1      14.240580 0.000000 5.696232
 504  1      14.240580 0.000000 8.544348
 505  1      14.240580 0.000000 11.392464
 506  1      14.240580 0.000000 14.240580
 507  1      14.240580 0.000000 17.088696
 508  1      14.240580 0.000000 19.936811
 509  1      14.240580 0.000000 22.784927
 510  1      14.240580 0.000000 25.633043
 511  1      14.240580 2.848116 0.000000
 512  1      14.240580 2.848116 2.848116
 513  1      14.240580 2.848116 5.696232
 514  1      14.240580 2.848116 8.544348
 515  1      14.240580 2.848116 11.392464
 516  1      14.240580 2.848116 14.240580
 517  1      14.240580 2.848116 17.088696
 518  1      14.240580 2.848116 19.936811
 519  1      14.240580 2.848116 22.784927
 520  1      14.240580 2.848116 25.633043
 521  1      14.240580 5.696232 0.000000
 522  1      14.240580 5.696232 2.848116
 523  1      14.240580 5.696232 5.696232
 524  1      14.240580 5.696232 8.544348
 525  1      14.240580 5.696232 11.392464
 526  1      14.240580 5.696232 14.240580
 527  1      14.240580 5.696232 17.088696
 528  1      14.240580 5.696232 19.936811
 529  1      14.240580 5.696232 22.784927
 530  1      14.240580 5.696232 25.633043
 531  1      14.240580 8.544348 0.000000
 532  1      14.240580 8.544348 2.848116
 533  1      14.240580 8.544348 5.696232
 534  1      14.240580 8.544348 8.544348
 535  1      14.240580 8.544348 11.392464
 536  1      14.240580 8.544348 14.240580
 537  1      14.240580 8.544348 17.088696
 538  1      14.240580 8.544348 19.936811
 539  1      14.240580 8.544348 22.784927
 540  1      14.240580 8.544348 25.633043
 541  1      14.240580 11.392464 0.000000
 542  1      14.240580 11.392464 2.848116
 543  1      14.240580 11.392464 5.696232
 544  1      14.240580 11.392464 8.544348
 545  1      14.240580 11.392464 11.392464
 546  1      14.240580 11.392464 14.240580
 547  1      14.240580 11.392464 17.088696
 548  1      14.240580 11.392464 19.936811
 549  1      14.240580 11.392464 22.784927
 550  1      14.240580 11.392464 25.633043
 551  1      14.240580 14.240580 0.000000
 552  1      14.240580 14.240580 2.848116
 553  1      14.240580 14.240580 5.696232
 554  1      14.240580 14.240580 8.544348
 555  1      14.240580 14.240580 11.392464
 556  1      14.240580 14.240580 14.240580
 557  1      14.240580 14.240580 17.088696
 558  1      14.240580 14.240580 19.936811
 559  1      14.240580 14.240580 22.784927
 560  1      14.240580 14.240580 25.633043
 561  1      14.240580 17.088696 0.000000
 562  1      14.240580 17.088696 2.848116
 563  1      14.240580 17.088696 5.696232
 564  1      14.240580 17.088696 8.544348
 565  1      14.240580 17.088696 11.392464
 566  1      14.240580 17.088696 14.240580
 567  1      14.240580 17.088696 17.088696
 568  1      14.240580 17.088696 19.936811
 569  1      14.240580 17.088696 22.784927
 570  1      14.240580 17.088696 25.633043
 571  1      14.240580 19.936811 0.000000
 572  1      14.240580 19.936811 2.848116
 573  1      14.240580 19.936811 5.696232
 574  1      14.240580 19.936811 8.544348
 575  1      14.240580 19.936811 11.392464
 576  1      14.240580 19.936811 14.240580
 577  1      14.240580 19.936811 17.088696
 578  1      14.240580 19.936811 19.936811
 579  1      14.240580 19.936811 22.784927
 580  1      14.240580 19.936811 25.633043
 581  1      14.240580 22.784927 0.000000
 582  1      14.240580 22.784927 2.848116
 583  1      14.240580 22.784927 5.696232
 584  1      14.240580 22.784927 8.544348
 585  1      14.240580 22.784927 11.392464
 586  1      14.240580 22.784927 14.240580
 587  1      14.240580 22.784927 17.088696
 588  1      14.240580 22.784927 19.936811
 589  1      14.240580 22.784927 22.784927
 590  1      14.240580 22.784927 25.633043
 591  1      14.240580 25.633043 0.000000
 592  1      14.240580 25.633043 2.848116
 593  1      14.240580 25.633043 5.696232
 594  1      14.240580 25.633043 8.544348
 595  1      14.240580 25.633043 11.392464
 596  1      14.240580 25.633043 14.240580
 597  1      14.240580 25.633043 17.088696
 598  1      14.240580 25.633043 19.936811
 599  1      14.240580 25.633043 22.784927
 600  1      14.240580 25.633043 25.633043
 601  1      17.088696 0.000000 0.000000
 602  1      17.088696 0.000000 2.848116
 603  1      17.088696 0.000000 5.696232
 604  1      17.088696 0.000000 8.544348
 605  1      17.088696 0.000000 11.392464
 606  1      17.088696 0.000000 14.240580
 607  1      17.088696 0.000000 17.088696
 608  1      17.088696 0.000000 19.936811
 609  1      17.088696 0.000000 22.784927
 610  1      17.088696 0.000000 25.633043
 611  1      17.088696 2.848116 0.000000
 612  1      17.088696 2.848116 2.848116
 613  1      17.088696 2.848116 5.696232
 614  1      17.088696 2.848116 8.544348
 615  1      17.088696 2.848116 11.392464
 616  1      17.088696 2.848116 14.240580
 617  1      17.088696 2.848116 17.088696
 618  1      17.088696 2.848116 19.936811
 619  1      17.088696 2.848116 22.784927
 620  1      17.088696 2.848116 25.633043
 621  1      17.088696 5.696232 0.000000
 622  1      17.088696 5.696232 2.848116
 623  1      17.088696 5.696232 5.696232
 624  1      17.088696 5.696232 8.544348
 625  1      17.088696 5.696232 11.392464
 626  1      17.088696 5.696232 14.240580
 627  1      17.088696 5.696232 17.088696
 628  1      17.088696 5.696232 19.936811
 629  1      17.088696 5.696232 22.784927
 630  1      17.088696 5.696232 25.633043
 631  1      17.088696 8.544348 0.000000
 632  1      17.088696 8.544348 2.848116
 633  1      17.088696 8.544348 5.696232
 634  1      17.088696 8.544348 8.544348
 635  1      17.088696 8.544348 11.392464
 636  1      17.088696 8.544348 14.240580
 637  1      17.088696 8.544348 17.088696
 638  1      17.088696 8.544348 19.936811
 639  1      17.088696 8.544348 22.784927
 640  1      17.088696 8.544348 25.633043
 641  1      17.088696 11.392464 0.000000
 642  1      17.088696 11.392464 2.848116
 643  1      17.088696 11.392464 5.696232
 644  1      17.088696 11.392464 8.544348
 645  1      17.088696 11.392464 11.392464
 646  1      17.088696 11.392464 14.240580
 647  1      17.088696 11.392464 17.088696
 648  1      17.088696 11.392464 19.936811
 649  1      17.088696 11.392464 22.784927
 650  1      17.088696 11.392464 25.633043
 651  1      17.088696 14.240580 0.000000
 652  1      17.088696 14.240580 2.848116
 653  1      17.088696 14.240580 5.696232
 654  1      17.088696 14.240580 8.544348
 655  1      17.088696 14.240580 11.392464
 656  1      17.088696 14.240580 14.240580
 657  1      17.088696 14.240580 17.088696
 658  1      17.088696 14.240580 19.936811
 659  1      17.088696 14.240580 22.784927
 660  1      17.088696 14.240580 25.633043
 661  1      17.088696 17.088696 0.000000
 662  1      17.088696 17.088696 2.848116
 663  1      17.088696 17.088696 5.696232
 664  1      17.088696 17.088696 8.544348
 665  1      17.088696 17.088696 11.392464
 666  1      17.088696 17.088696 14.240580
 667  1      17.088696 17.088696 17.088696
 668  1      17.088696 17.088696 19.936811
 669  1      17.088696 17.088696 22.784927
 670  1      17.088696 17.088696 25.633043
 671  1      17.088696 19.936811 0.000000
 672  1      17.088696 19.936811 2.848116
 673  1      17.088696 19.936811 5.696232
 674  1      17.088696 19.936811 8.544348
 675  1      17.088696 19.936811 11.392464
 676  1      17.088696 19.936811 14.240580
 677  1      17.088696 19.936811 17.088696
 678  1      17.088696 19.936811 19.936811
 679  1      17.088696 19.936811 22.784927
 680  1      17.088696 19.936811 25.633043
 681  1      17.088696 22.784927 0.000000
 682  1      17.088696 22.784927 2.848116
 683  1      17.088696 22.784927 5.696232
 684  1      17.088696 22.784927 8.544348
 685  1      17.088696 22.784927 11.392464
 686  1      17.088696 22.784927 14.240580
 687  1      17.088696 22.784927 17.088696
 688  1      17.088696 22.784927 19.936811
 689  1      17.088696 22.784927 22.784927
 690  1      17.088696 22.784927 25.633043
 691  1      17.088696 25.633043 0.000000
 692  1      17.088696 25.633043 2.848116
 693  1      17.088696 25.633043 5.696232
 694  1      17.088696 25.633043 8.544348
 695  1      17.088696 25.633043 11.392464
 696  1      17.088696 25.633043 14.240580
 697  1      17.088696 25.633043 17.088696
 698  1      17.088696 25.633043 19.936811
 699  1      17.088696 25.633043 22.784927
 700  1      17.088696 25.633043 25.633043
 701  1      19.936811 0.000000 0.000000
 702  1      19.936811 0.000000 2.848116
 703  1      19.936811 0.000000 5.696232
 704  1      19.936811 0.000000 8.544348
 705  1      19.936811 0.000000 11.392464
 706  1      19.936811 0.000000 14.240580
 707  1      19.936811 0.000000 17.088696
 708  1      19.936811 0.000000 19.936811
 709  1      19.936811 0.000000 22.784927
 710  1      19.936811 0.000000 25.633043
 711  1      19.936811 2.848116 0.000000
 712  1      19.936811 2.848116 2.848116
 713  1      19.936811 2.848116 5.696232
 714  1      19.936811 2.848116 8.544348
 715  1      19.936811 2.848116 11.392464