ITEM: TIMESTEP
0
ITEM: NUMBER OF ATOMS
1
ITEM: BOX BOUNDS pp pp pp
0.0000000000000000e+00 1.4240600000000001e+01
0.0000000000000000e+00 1.4240600000000001e+01
0.0000000000000000e+00 1.4240600000000001e+01
ITEM: ATOMS id type x y z 
126 2 7.1203 7.1203 7.1203 
ITEM: TIMESTEP
19
ITEM: NUMBER OF ATOMS
1
ITEM: BOX BOUNDS pp pp pp
0.0000000000000000e+00 1.4240600000000001e+01
0.0000000000000000e+00 1.4240600000000001e+01
0.0000000000000000e+00 1.4240600000000001e+01
ITEM: ATOMS id type x y z 
126 2 7.12096 7.11553 7.12259 
ITEM: TIMESTEP
0
ITEM: NUMBER OF ATOMS
1
ITEM: BOX BOUNDS pp pp pp
0.0000000000000000e+00 1.4240600000000001e+01
0.0000000000000000e+00 1.4240600000000001e+01
0.0000000000000000e+00 1.4240600000000001e+01
ITEM: ATOMS id type x y z 
126 2 6.15712 8.08119 7.11059 
ITEM: TIMESTEP
100
ITEM: NUMBER OF ATOMS
1
ITEM: BOX BOUNDS pp pp pp
0.0000000000000000e+00 1.4240600000000001e+01
0.0000000000000000e+00 1.4240600000000001e+01
0.0000000000000000e+00 1.4240600000000001e+01
ITEM: ATOMS id type x y z 
126 2 5.90382 8.3455 7.10169 
ITEM: TIMESTEP
200
ITEM: NUMBER OF ATOMS
1
ITEM: BOX BOUNDS pp pp pp
0.0000000000000000e+00 1.4240600000000001e+01
0.0000000000000000e+00 1.4240600000000001e+01
0.0000000000000000e+00 1.4240600000000001e+01
ITEM: ATOMS id type x y z 
126 2 6.15032 8.08803 7.12536 
ITEM: TIMESTEP
300
ITEM: NUMBER OF ATOMS
1
ITEM: BOX BOUNDS pp pp pp
0.0000000000000000e+00 1.4240600000000001e+01
0.0000000000000000e+00 1.4240600000000001e+01
0.0000000000000000e+00 1.4240600000000001e+01
ITEM: ATOMS id type x y z 
126 2 6.1531 8.07559 7.12361 
ITEM: TIMESTEP
400
ITEM: NUMBER OF ATOMS
1
ITEM: BOX BOUNDS pp pp pp
0.0000000000000000e+00 1.4240600000000001e+01
0.0000000000000000e+00 1.4240600000000001e+01
0.0000000000000000e+00 1.4240600000000001e+01
ITEM: ATOMS id type x y z 
126 2 6.12383 8.04624 7.1234 
ITEM: TIMESTEP
500
ITEM: NUMBER OF ATOMS
1
ITEM: BOX BOUNDS pp pp pp
0.0000000000000000e+00 1.4240600000000001e+01
0.0000000000000000e+00 1.4240600000000001e+01
0.0000000000000000e+00 1.4240600000000001e+01
ITEM: ATOMS id type x y z 
126 2 6.12339 8.04524 7.12329 
ITEM: TIMESTEP
600
ITEM: NUMBER OF ATOMS
1
ITEM: BOX BOUNDS pp pp pp
0.0000000000000000e+00 1.4240600000000001e+01
0.0000000000000000e+00 1.4240600000000001e+01
0.0000000000000000e+00 1.4240600000000001e+01
ITEM: ATOMS id type x y z 
126 2 6.15302 8.07544 7.12437 
ITEM: TIMESTEP
700
ITEM: NUMBER OF ATOMS
1
ITEM: BOX BOUNDS pp pp pp
0.0000000000000000e+00 1.4240600000000001e+01
0.0000000000000000e+00 1.4240600000000001e+01
0.0000000000000000e+00 1.4240600000000001e+01
ITEM: ATOMS id type x y z 
126 2 6.15446 8.07701 7.12424 
ITEM: TIMESTEP
800
ITEM: NUMBER OF ATOMS
1
ITEM: BOX BOUNDS pp pp pp
0.0000000000000000e+00 1.4240600000000001e+01
0.0000000000000000e+00 1.4240600000000001e+01
0.0000000000000000e+00 1.4240600000000001e+01
ITEM: ATOMS id type x y z 
126 2 6.14811 8.0708 7.12283 
ITEM: TIMESTEP
900
ITEM: NUMBER OF ATOMS
1
ITEM: BOX BOUNDS pp pp pp
0.0000000000000000e+00 1.4240600000000001e+01
0.0000000000000000e+00 1.4240600000000001e+01
0.0000000000000000e+00 1.4240600000000001e+01
ITEM: ATOMS id type x y z 
126 2 6.12108 8.04728 7.12243 
ITEM: TIMESTEP
1000
ITEM: NUMBER OF ATOMS
1
ITEM: BOX BOUNDS pp pp pp
0.0000000000000000e+00 1.4240600000000001e+01
0.0000000000000000e+00 1.4240600000000001e+01
0.0000000000000000e+00 1.4240600000000001e+01
ITEM: ATOMS id type x y z 
126 2 6.11353 8.04114 7.12123 
ITEM: TIMESTEP
1100
ITEM: NUMBER OF ATOMS
1
ITEM: BOX BOUNDS pp pp pp
0.0000000000000000e+00 1.4240600000000001e+01
0.0000000000000000e+00 1.4240600000000001e+01
0.0000000000000000e+00 1.4240600000000001e+01
ITEM: ATOMS id type x y z 
126 2 6.10926 8.03835 7.12133 
ITEM: TIMESTEP
1200
ITEM: NUMBER OF ATOMS
1
ITEM: BOX BOUNDS pp pp pp
0.0000000000000000e+00 1.4240600000000001e+01
0.0000000000000000e+00 1.4240600000000001e+01
0.0000000000000000e+00 1.4240600000000001e+01
ITEM: ATOMS id type x y z 
126 2 6.10929 8.03884 7.12095 
ITEM: TIMESTEP
1300
ITEM: NUMBER OF ATOMS
1
ITEM: BOX BOUNDS pp pp pp
0.0000000000000000e+00 1.4240600000000001e+01
0.0000000000000000e+00 1.4240600000000001e+01
0.0000000000000000e+00 1.4240600000000001e+01
ITEM: ATOMS id type x y z 
126 2 6.10956 8.03914 7.12052 
ITEM: TIMESTEP
1400
ITEM: NUMBER OF ATOMS
1
ITEM: BOX BOUNDS pp pp pp
0.0000000000000000e+00 1.4240600000000001e+01
0.0000000000000000e+00 1.4240600000000001e+01
0.0000000000000000e+00 1.4240600000000001e+01
ITEM: ATOMS id type x y z 
126 2 6.11026 8.03981 7.12016 
ITEM: TIMESTEP
1500
ITEM: NUMBER OF ATOMS
1
ITEM: BOX BOUNDS pp pp pp
0.0000000000000000e+00 1.4240600000000001e+01
0.0000000000000000e+00 1.4240600000000001e+01
0.0000000000000000e+00 1.4240600000000001e+01
ITEM: ATOMS id type x y z 
126 2 6.11111 8.04061 7.1196 
ITEM: TIMESTEP
1600
ITEM: NUMBER OF ATOMS
1
ITEM: BOX BOUNDS pp pp pp
0.0000000000000000e+00 1.4240600000000001e+01
0.0000000000000000e+00 1.4240600000000001e+01
0.0000000000000000e+00 1.4240600000000001e+01
ITEM: ATOMS id type x y z 
126 2 6.11167 8.04107 7.11857 
ITEM: TIMESTEP
1700
ITEM: NUMBER OF ATOMS
1
ITEM: BOX BOUNDS pp pp pp
0.0000000000000000e+00 1.4240600000000001e+01
0.0000000000000000e+00 1.4240600000000001e+01
0.0000000000000000e+00 1.4240600000000001e+01
ITEM: ATOMS id type x y z 
126 2 6.11156 8.04078 7.11429 
ITEM: TIMESTEP
1800
ITEM: NUMBER OF ATOMS
1
ITEM: BOX BOUNDS pp pp pp
0.0000000000000000e+00 1.4240600000000001e+01
0.0000000000000000e+00 1.4240600000000001e+01
0.0000000000000000e+00 1.4240600000000001e+01
ITEM: ATOMS id type x y z 
126 2 6.11027 8.03917 7.11295 
ITEM: TIMESTEP
1900
ITEM: NUMBER OF ATOMS
1
ITEM: BOX BOUNDS pp pp pp
0.0000000000000000e+00 1.4240600000000001e+01
0.0000000000000000e+00 1.4240600000000001e+01
0.0000000000000000e+00 1.4240600000000001e+01
ITEM: ATOMS id type x y z 
126 2 6.10956 8.03831 7.119 
ITEM: TIMESTEP
2000
ITEM: NUMBER OF ATOMS
1
ITEM: BOX BOUNDS pp pp pp
0.0000000000000000e+00 1.4240600000000001e+01
0.0000000000000000e+00 1.4240600000000001e+01
0.0000000000000000e+00 1.4240600000000001e+01
ITEM: ATOMS id type x y z 
126 2 6.10963 8.03828 7.11994 
ITEM: TIMESTEP
2100
ITEM: NUMBER OF ATOMS
1
ITEM: BOX BOUNDS pp pp pp
0.0000000000000000e+00 1.4240600000000001e+01
0.0000000000000000e+00 1.4240600000000001e+01
0.0000000000000000e+00 1.4240600000000001e+01
ITEM: ATOMS id type x y z 
126 2 6.10987 8.03846 7.12008 
ITEM: TIMESTEP
2200
ITEM: NUMBER OF ATOMS
1
ITEM: BOX BOUNDS pp pp pp
0.0000000000000000e+00 1.4240600000000001e+01
0.0000000000000000e+00 1.4240600000000001e+01
0.0000000000000000e+00 1.4240600000000001e+01
ITEM: ATOMS id type x y z 
126 2 6.11009 8.03861 7.11998 
ITEM: TIMESTEP
2300
ITEM: NUMBER OF ATOMS
1
ITEM: BOX BOUNDS pp pp pp
0.0000000000000000e+00 1.4240600000000001e+01
0.0000000000000000e+00 1.4240600000000001e+01
0.0000000000000000e+00 1.4240600000000001e+01
ITEM: ATOMS id type x y z 
126 2 6.11022 8.03869 7.11989 
ITEM: TIMESTEP
2400
ITEM: NUMBER OF ATOMS
1
ITEM: BOX BOUNDS pp pp pp
0.0000000000000000e+00 1.4240600000000001e+01
0.0000000000000000e+00 1.4240600000000001e+01
0.0000000000000000e+00 1.4240600000000001e+01
ITEM: ATOMS id type x y z 
126 2 6.11033 8.03873 7.11984 
ITEM: TIMESTEP
2500
ITEM: NUMBER OF ATOMS
1
ITEM: BOX BOUNDS pp pp pp
0.0000000000000000e+00 1.4240600000000001e+01
0.0000000000000000e+00 1.4240600000000001e+01
0.0000000000000000e+00 1.4240600000000001e+01
ITEM: ATOMS id type x y z 
126 2 6.1104 8.03875 7.11983 
ITEM: TIMESTEP
2600
ITEM: NUMBER OF ATOMS
1
ITEM: BOX BOUNDS pp pp pp
0.0000000000000000e+00 1.4240600000000001e+01
0.0000000000000000e+00 1.4240600000000001e+01
0.0000000000000000e+00 1.4240600000000001e+01
ITEM: ATOMS id type x y z 
126 2 6.11045 8.03874 7.11982 
ITEM: TIMESTEP
2700
ITEM: NUMBER OF ATOMS
1
ITEM: BOX BOUNDS pp pp pp
0.0000000000000000e+00 1.4240600000000001e+01
0.0000000000000000e+00 1.4240600000000001e+01
0.0000000000000000e+00 1.4240600000000001e+01
ITEM: ATOMS id type x y z 
126 2 6.11051 8.03876 7.11981 
ITEM: TIMESTEP
2800
ITEM: NUMBER OF ATOMS
1
ITEM: BOX BOUNDS pp pp pp
0.0000000000000000e+00 1.4240600000000001e+01
0.0000000000000000e+00 1.4240600000000001e+01
0.0000000000000000e+00 1.4240600000000001e+01
ITEM: ATOMS id type x y z 
126 2 6.11056 8.03876 7.1198 
ITEM: TIMESTEP
2900
ITEM: NUMBER OF ATOMS
1
ITEM: BOX BOUNDS pp pp pp
0.0000000000000000e+00 1.4240600000000001e+01
0.0000000000000000e+00 1.4240600000000001e+01
0.0000000000000000e+00 1.4240600000000001e+01
ITEM: ATOMS id type x y z 
126 2 6.11061 8.03878 7.1198 
ITEM: TIMESTEP
3000
ITEM: NUMBER OF ATOMS
1
ITEM: BOX BOUNDS pp pp pp
0.0000000000000000e+00 1.4240600000000001e+01
0.0000000000000000e+00 1.4240600000000001e+01
0.0000000000000000e+00 1.4240600000000001e+01
ITEM: ATOMS id type x y z 
126 2 6.11066 8.0388 7.1198 
ITEM: TIMESTEP
3100
ITEM: NUMBER OF ATOMS
1
ITEM: BOX BOUNDS pp pp pp
0.0000000000000000e+00 1.4240600000000001e+01
0.0000000000000000e+00 1.4240600000000001e+01
0.0000000000000000e+00 1.4240600000000001e+01
ITEM: ATOMS id type x y z 
126 2 6.11068 8.03879 7.1198 
ITEM: TIMESTEP
3200
ITEM: NUMBER OF ATOMS
1
ITEM: BOX BOUNDS pp pp pp
0.0000000000000000e+00 1.4240600000000001e+01
0.0000000000000000e+00 1.4240600000000001e+01
0.0000000000000000e+00 1.4240600000000001e+01
ITEM: ATOMS id type x y z 
126 2 6.11071 8.0388 7.1198 
ITEM: TIMESTEP
3259
ITEM: NUMBER OF ATOMS
1
ITEM: BOX BOUNDS pp pp pp
0.0000000000000000e+00 1.4240600000000001e+01
0.0000000000000000e+00 1.4240600000000001e+01
0.0000000000000000e+00 1.4240600000000001e+01
ITEM: ATOMS id type x y z 
126 2 6.11073 8.03881 7.1198 
ITEM: TIMESTEP
3300
ITEM: NUMBER OF ATOMS
1
ITEM: BOX BOUNDS pp pp pp
0.0000000000000000e+00 1.4240600000000001e+01
0.0000000000000000e+00 1.4240600000000001e+01
0.0000000000000000e+00 1.4240600000000001e+01
ITEM: ATOMS id type x y z 
126 2 6.44612 7.96072 7.10547 
ITEM: TIMESTEP
3400
ITEM: NUMBER OF ATOMS
1
ITEM: BOX BOUNDS pp pp pp
0.0000000000000000e+00 1.4240600000000001e+01
0.0000000000000000e+00 1.4240600000000001e+01
0.0000000000000000e+00 1.4240600000000001e+01
ITEM: ATOMS id type x y z 
126 2 3.95096 9.07576 7.09197 
ITEM: TIMESTEP
3500
ITEM: NUMBER OF ATOMS
1
ITEM: BOX BOUNDS pp pp pp
0.0000000000000000e+00 1.4240600000000001e+01
0.0000000000000000e+00 1.4240600000000001e+01
0.0000000000000000e+00 1.4240600000000001e+01
ITEM: ATOMS id type x y z 
126 2 5.27323 8.53253 7.11363 
ITEM: TIMESTEP
3600
ITEM: NUMBER OF ATOMS
1
ITEM: BOX BOUNDS pp pp pp
0.0000000000000000e+00 1.4240600000000001e+01
0.0000000000000000e+00 1.4240600000000001e+01
0.0000000000000000e+00 1.4240600000000001e+01
ITEM: ATOMS id type x y z 
126 2 5.31629 8.50738 7.11375 
ITEM: TIMESTEP
3700
ITEM: NUMBER OF ATOMS
1
ITEM: BOX BOUNDS pp pp pp
0.0000000000000000e+00 1.4240600000000001e+01
0.0000000000000000e+00 1.4240600000000001e+01
0.0000000000000000e+00 1.4240600000000001e+01
ITEM: ATOMS id type x y z 
126 2 5.37222 8.48177 7.11373 
ITEM: TIMESTEP
3800
ITEM: NUMBER OF ATOMS
1
ITEM: BOX BOUNDS pp pp pp
0.0000000000000000e+00 1.4240600000000001e+01
0.0000000000000000e+00 1.4240600000000001e+01
0.0000000000000000e+00 1.4240600000000001e+01
ITEM: ATOMS id type x y z 
126 2 5.54449 8.35343 7.11512 
ITEM: TIMESTEP
3900
ITEM: NUMBER OF ATOMS
1
ITEM: BOX BOUNDS pp pp pp
0.0000000000000000e+00 1.4240600000000001e+01
0.0000000000000000e+00 1.4240600000000001e+01
0.0000000000000000e+00 1.4240600000000001e+01
ITEM: ATOMS id type x y z 
126 2 5.63938 8.28975 7.11349 
ITEM: TIMESTEP
4000
ITEM: NUMBER OF ATOMS
1
ITEM: BOX BOUNDS pp pp pp
0.0000000000000000e+00 1.4240600000000001e+01
0.0000000000000000e+00 1.4240600000000001e+01
0.0000000000000000e+00 1.4240600000000001e+01
ITEM: ATOMS id type x y z 
126 2 5.76281 8.22256 7.11512 
ITEM: TIMESTEP
4100
ITEM: NUMBER OF ATOMS
1
ITEM: BOX BOUNDS pp pp pp
0.0000000000000000e+00 1.4240600000000001e+01
0.0000000000000000e+00 1.4240600000000001e+01
0.0000000000000000e+00 1.4240600000000001e+01
ITEM: ATOMS id type x y z 
126 2 5.79706 8.22117 7.1135 
ITEM: TIMESTEP
4200
ITEM: NUMBER OF ATOMS
1
ITEM: BOX BOUNDS pp pp pp
0.0000000000000000e+00 1.4240600000000001e+01
0.0000000000000000e+00 1.4240600000000001e+01
0.0000000000000000e+00 1.4240600000000001e+01
ITEM: ATOMS id type x y z 
126 2 6.11176 8.23177 7.1153 
ITEM: TIMESTEP
4300
ITEM: NUMBER OF ATOMS
1
ITEM: BOX BOUNDS pp pp pp
0.0000000000000000e+00 1.4240600000000001e+01
0.0000000000000000e+00 1.4240600000000001e+01
0.0000000000000000e+00 1.4240600000000001e+01
ITEM: ATOMS id type x y z 
126 2 6.18172 8.31024 7.11429 
ITEM: TIMESTEP
4400
ITEM: NUMBER OF ATOMS
1
ITEM: BOX BOUNDS pp pp pp
0.0000000000000000e+00 1.4240600000000001e+01
0.0000000000000000e+00 1.4240600000000001e+01
0.0000000000000000e+00 1.4240600000000001e+01
ITEM: ATOMS id type x y z 
126 2 6.22491 8.38197 7.11334 
ITEM: TIMESTEP
4500
ITEM: NUMBER OF ATOMS
1
ITEM: BOX BOUNDS pp pp pp
0.0000000000000000e+00 1.4240600000000001e+01
0.0000000000000000e+00 1.4240600000000001e+01
0.0000000000000000e+00 1.4240600000000001e+01
ITEM: ATOMS id type x y z 
126 2 6.20801 8.53124 7.11132 
ITEM: TIMESTEP
4600
ITEM: NUMBER OF ATOMS
1
ITEM: BOX BOUNDS pp pp pp
0.0000000000000000e+00 1.4240600000000001e+01
0.0000000000000000e+00 1.4240600000000001e+01
0.0000000000000000e+00 1.4240600000000001e+01
ITEM: ATOMS id type x y z 
126 2 5.93894 8.45892 7.11127 
ITEM: TIMESTEP
4700
ITEM: NUMBER OF ATOMS
1
ITEM: BOX BOUNDS pp pp pp
0.0000000000000000e+00 1.4240600000000001e+01
0.0000000000000000e+00 1.4240600000000001e+01
0.0000000000000000e+00 1.4240600000000001e+01
ITEM: ATOMS id type x y z 
126 2 5.68421 8.32284 7.11309 
ITEM: TIMESTEP
4800
ITEM: NUMBER OF ATOMS
1
ITEM: BOX BOUNDS pp pp pp
0.0000000000000000e+00 1.4240600000000001e+01
0.0000000000000000e+00 1.4240600000000001e+01
0.0000000000000000e+00 1.4240600000000001e+01
ITEM: ATOMS id type x y z 
126 2 5.46112 8.40984 7.113 
ITEM: TIMESTEP
4900
ITEM: NUMBER OF ATOMS
1
ITEM: BOX BOUNDS pp pp pp
0.0000000000000000e+00 1.4240600000000001e+01
0.0000000000000000e+00 1.4240600000000001e+01
0.0000000000000000e+00 1.4240600000000001e+01
ITEM: ATOMS id type x y z 
126 2 4.94991 8.86624 7.11313 
ITEM: TIMESTEP
5000
ITEM: NUMBER OF ATOMS
1
ITEM: BOX BOUNDS pp pp pp
0.0000000000000000e+00 1.4240600000000001e+01
0.0000000000000000e+00 1.4240600000000001e+01
0.0000000000000000e+00 1.4240600000000001e+01
ITEM: ATOMS id type x y z 
126 2 4.92162 8.89114 7.10895 
ITEM: TIMESTEP
5100
ITEM: NUMBER OF ATOMS
1
ITEM: BOX BOUNDS pp pp pp
0.0000000000000000e+00 1.4240600000000001e+01
0.0000000000000000e+00 1.4240600000000001e+01
0.0000000000000000e+00 1.4240600000000001e+01
ITEM: ATOMS id type x y z 
126 2 1.34969 11.2591 7.06126 
ITEM: TIMESTEP
5200
ITEM: NUMBER OF ATOMS
1
ITEM: BOX BOUNDS pp pp pp
0.0000000000000000e+00 1.4240600000000001e+01
0.0000000000000000e+00 1.4240600000000001e+01
0.0000000000000000e+00 1.4240600000000001e+01
ITEM: ATOMS id type x y z 
126 2 1.38381 11.6291 6.78821 
ITEM: TIMESTEP
5300
ITEM: NUMBER OF ATOMS
1
ITEM: BOX BOUNDS pp pp pp
0.0000000000000000e+00 1.4240600000000001e+01
0.0000000000000000e+00 1.4240600000000001e+01
0.0000000000000000e+00 1.4240600000000001e+01
ITEM: ATOMS id type x y z 
126 2 3.95791 8.42473 5.90038 
ITEM: TIMESTEP
5400
ITEM: NUMBER OF ATOMS
1
ITEM: BOX BOUNDS pp pp pp
0.0000000000000000e+00 1.4240600000000001e+01
0.0000000000000000e+00 1.4240600000000001e+01
0.0000000000000000e+00 1.4240600000000001e+01
ITEM: ATOMS id type x y z 
126 2 5.18607 8.65943 6.97273 
ITEM: TIMESTEP
5500
ITEM: NUMBER OF ATOMS
1
ITEM: BOX BOUNDS pp pp pp
0.0000000000000000e+00 1.4240600000000001e+01
0.0000000000000000e+00 1.4240600000000001e+01
0.0000000000000000e+00 1.4240600000000001e+01
ITEM: ATOMS id type x y z 
126 2 2.56356 10.6383 5.99351 
ITEM: TIMESTEP
5600
ITEM: NUMBER OF ATOMS
1
ITEM: BOX BOUNDS pp pp pp
0.0000000000000000e+00 1.4240600000000001e+01
0.0000000000000000e+00 1.4240600000000001e+01
0.0000000000000000e+00 1.4240600000000001e+01
ITEM: ATOMS id type x y z 
126 2 0.47513 12.7502 4.58868 
ITEM: TIMESTEP
5700
ITEM: NUMBER OF ATOMS
1
ITEM: BOX BOUNDS pp pp pp
0.0000000000000000e+00 1.4240600000000001e+01
0.0000000000000000e+00 1.4240600000000001e+01
0.0000000000000000e+00 1.4240600000000001e+01
ITEM: ATOMS id type x y z 
126 2 11.7374 1.39097 7.06657 
ITEM: TIMESTEP
5800
ITEM: NUMBER OF ATOMS
1
ITEM: BOX BOUNDS pp pp pp
0.0000000000000000e+00 1.4240600000000001e+01
0.0000000000000000e+00 1.4240600000000001e+01
0.0000000000000000e+00 1.4240600000000001e+01
ITEM: ATOMS id type x y z 
126 2 8.3752 3.86292 8.35222 
ITEM: TIMESTEP
5900
ITEM: NUMBER OF ATOMS
1
ITEM: BOX BOUNDS pp pp pp
0.0000000000000000e+00 1.4240600000000001e+01
0.0000000000000000e+00 1.4240600000000001e+01
0.0000000000000000e+00 1.4240600000000001e+01
ITEM: ATOMS id type x y z 
126 2 7.79966 5.00244 8.46731 
ITEM: TIMESTEP
6000
ITEM: NUMBER OF ATOMS
1
ITEM: BOX BOUNDS pp pp pp
0.0000000000000000e+00 1.4240600000000001e+01
0.0000000000000000e+00 1.4240600000000001e+01
0.0000000000000000e+00 1.4240600000000001e+01
ITEM: ATOMS id type x y z 
126 2 8.41692 1.59588 7.8328 
ITEM: TIMESTEP
6100
ITEM: NUMBER OF ATOMS
1
ITEM: BOX BOUNDS pp pp pp
0.0000000000000000e+00 1.4240600000000001e+01
0.0000000000000000e+00 1.4240600000000001e+01
0.0000000000000000e+00 1.4240600000000001e+01
ITEM: ATOMS id type x y z 
126 2 7.16796 11.0089 9.10137 
ITEM: TIMESTEP
6200
ITEM: NUMBER OF ATOMS
1
ITEM: BOX BOUNDS pp pp pp
0.0000000000000000e+00 1.4240600000000001e+01
0.0000000000000000e+00 1.4240600000000001e+01
0.0000000000000000e+00 1.4240600000000001e+01
ITEM: ATOMS id type x y z 
126 2 10.2769 11.0742 10.1936 
ITEM: TIMESTEP
6300
ITEM: NUMBER OF ATOMS
1
ITEM: BOX BOUNDS pp pp pp
0.0000000000000000e+00 1.4240600000000001e+01
0.0000000000000000e+00 1.4240600000000001e+01
0.0000000000000000e+00 1.4240600000000001e+01
ITEM: ATOMS id type x y z 
126 2 11.6166 9.07042 9.12164 
ITEM: TIMESTEP
6400
ITEM: NUMBER OF ATOMS
1
ITEM: BOX BOUNDS pp pp pp
0.0000000000000000e+00 1.4240600000000001e+01
0.0000000000000000e+00 1.4240600000000001e+01
0.0000000000000000e+00 1.4240600000000001e+01
ITEM: ATOMS id type x y z 
126 2 13.7235 7.04655 6.78058 
ITEM: TIMESTEP
6500
ITEM: NUMBER OF ATOMS
1
ITEM: BOX BOUNDS pp pp pp
0.0000000000000000e+00 1.4240600000000001e+01
0.0000000000000000e+00 1.4240600000000001e+01
0.0000000000000000e+00 1.4240600000000001e+01
ITEM: ATOMS id type x y z 
126 2 3.00662 9.29884 6.44798 
ITEM: TIMESTEP
6600
ITEM: NUMBER OF ATOMS
1
ITEM: BOX BOUNDS pp pp pp
0.0000000000000000e+00 1.4240600000000001e+01
0.0000000000000000e+00 1.4240600000000001e+01
0.0000000000000000e+00 1.4240600000000001e+01
ITEM: ATOMS id type x y z 
126 2 3.10881 9.47742 6.6148 
ITEM: TIMESTEP
6700
ITEM: NUMBER OF ATOMS
1
ITEM: BOX BOUNDS pp pp pp
0.0000000000000000e+00 1.4240600000000001e+01
0.0000000000000000e+00 1.4240600000000001e+01
0.0000000000000000e+00 1.4240600000000001e+01
ITEM: ATOMS id type x y z 
126 2 12.8852 7.00005 4.54853 
ITEM: TIMESTEP
6800
ITEM: NUMBER OF ATOMS
1
ITEM: BOX BOUNDS pp pp pp
0.0000000000000000e+00 1.4240600000000001e+01
0.0000000000000000e+00 1.4240600000000001e+01
0.0000000000000000e+00 1.4240600000000001e+01
ITEM: ATOMS id type x y z 
126 2 11.5662 5.44753 5.56699 
ITEM: TIMESTEP
6900
ITEM: NUMBER OF ATOMS
1
ITEM: BOX BOUNDS pp pp pp
0.0000000000000000e+00 1.4240600000000001e+01
0.0000000000000000e+00 1.4240600000000001e+01
0.0000000000000000e+00 1.4240600000000001e+01
ITEM: ATOMS id type x y z 
126 2 7.84166 10.0923 1.82641 
ITEM: TIMESTEP
7000
ITEM: NUMBER OF ATOMS
1
ITEM: BOX BOUNDS pp pp pp
0.0000000000000000e+00 1.4240600000000001e+01
0.0000000000000000e+00 1.4240600000000001e+01
0.0000000000000000e+00 1.4240600000000001e+01
ITEM: ATOMS id type x y z 
126 2 4.59304 11.947 12.9448 
ITEM: TIMESTEP
7100
ITEM: NUMBER OF ATOMS
1
ITEM: BOX BOUNDS pp pp pp
0.0000000000000000e+00 1.4240600000000001e+01
0.0000000000000000e+00 1.4240600000000001e+01
0.0000000000000000e+00 1.4240600000000001e+01
ITEM: ATOMS id type x y z 
126 2 6.35665 8.64487 0.180542 
ITEM: TIMESTEP
7200
ITEM: NUMBER OF ATOMS
1
ITEM: BOX BOUNDS pp pp pp
0.0000000000000000e+00 1.4240600000000001e+01
0.0000000000000000e+00 1.4240600000000001e+01
0.0000000000000000e+00 1.4240600000000001e+01
ITEM: ATOMS id type x y z 
126 2 7.86566 6.5162 1.20244 
ITEM: TIMESTEP
7300
ITEM: NUMBER OF ATOMS
1
ITEM: BOX BOUNDS pp pp pp
0.0000000000000000e+00 1.4240600000000001e+01
0.0000000000000000e+00 1.4240600000000001e+01
0.0000000000000000e+00 1.4240600000000001e+01
ITEM: ATOMS id type x y z 
126 2 8.13164 5.01153 2.6159 
ITEM: TIMESTEP
7400
ITEM: NUMBER OF ATOMS
1
ITEM: BOX BOUNDS pp pp pp
0.0000000000000000e+00 1.4240600000000001e+01
0.0000000000000000e+00 1.4240600000000001e+01
0.0000000000000000e+00 1.4240600000000001e+01
ITEM: ATOMS id type x y z 
126 2 8.11277 4.20484 3.62809 
ITEM: TIMESTEP
7500
ITEM: NUMBER OF ATOMS
1
ITEM: BOX BOUNDS pp pp pp
0.0000000000000000e+00 1.4240600000000001e+01
0.0000000000000000e+00 1.4240600000000001e+01
0.0000000000000000e+00 1.4240600000000001e+01
ITEM: ATOMS id type x y z 
126 2 7.91293 4.22278 3.89592 
ITEM: TIMESTEP
7600
ITEM: NUMBER OF ATOMS
1
ITEM: BOX BOUNDS pp pp pp
0.0000000000000000e+00 1.4240600000000001e+01
0.0000000000000000e+00 1.4240600000000001e+01
0.0000000000000000e+00 1.4240600000000001e+01
ITEM: ATOMS id type x y z 
126 2 7.9256 4.11032 3.72373 
ITEM: TIMESTEP
7700
ITEM: NUMBER OF ATOMS
1
ITEM: BOX BOUNDS pp pp pp
0.0000000000000000e+00 1.4240600000000001e+01
0.0000000000000000e+00 1.4240600000000001e+01
0.0000000000000000e+00 1.4240600000000001e+01
ITEM: ATOMS id type x y z 
126 2 7.78921 4.11558 3.80652 
ITEM: TIMESTEP
7800
ITEM: NUMBER OF ATOMS
1
ITEM: BOX BOUNDS pp pp pp
0.0000000000000000e+00 1.4240600000000001e+01
0.0000000000000000e+00 1.4240600000000001e+01
0.0000000000000000e+00 1.4240600000000001e+01
ITEM: ATOMS id type x y z 
126 2 7.76873 4.11776 3.81624 
ITEM: TIMESTEP
7900
ITEM: NUMBER OF ATOMS
1
ITEM: BOX BOUNDS pp pp pp
0.0000000000000000e+00 1.4240600000000001e+01
0.0000000000000000e+00 1.4240600000000001e+01
0.0000000000000000e+00 1.4240600000000001e+01
ITEM: ATOMS id type x y z 
126 2 7.76388 4.11897 3.82215 
ITEM: TIMESTEP
8000
ITEM: NUMBER OF ATOMS
1
ITEM: BOX BOUNDS pp pp pp
0.0000000000000000e+00 1.4240600000000001e+01
0.0000000000000000e+00 1.4240600000000001e+01
0.0000000000000000e+00 1.4240600000000001e+01
ITEM: ATOMS id type x y z 
126 2 7.76512 4.11805 3.82085 
ITEM: TIMESTEP
8100
ITEM: NUMBER OF ATOMS
1
ITEM: BOX BOUNDS pp pp pp
0.0000000000000000e+00 1.4240600000000001e+01
0.0000000000000000e+00 1.4240600000000001e+01
0.0000000000000000e+00 1.4240600000000001e+01
ITEM: ATOMS id type x y z 
126 2 7.76526 4.11719 3.82176 
ITEM: TIMESTEP
8200
ITEM: NUMBER OF ATOMS
1
ITEM: BOX BOUNDS pp pp pp
0.0000000000000000e+00 1.4240600000000001e+01
0.0000000000000000e+00 1.4240600000000001e+01
0.0000000000000000e+00 1.4240600000000001e+01
ITEM: ATOMS id type x y z 
126 2 7.76612 4.11658 3.82149 
ITEM: TIMESTEP
8300
ITEM: NUMBER OF ATOMS
1
ITEM: BOX BOUNDS pp pp pp
0.0000000000000000e+00 1.4240600000000001e+01
0.0000000000000000e+00 1.4240600000000001e+01
0.0000000000000000e+00 1.4240600000000001e+01
ITEM: ATOMS id type x y z 
126 2 7.76457 4.1171 3.82433 
ITEM: TIMESTEP
8400
ITEM: NUMBER OF ATOMS
1
ITEM: BOX BOUNDS pp pp pp
0.0000000000000000e+00 1.4240600000000001e+01
0.0000000000000000e+00 1.4240600000000001e+01
0.0000000000000000e+00 1.4240600000000001e+01
ITEM: ATOMS id type x y z 
126 2 7.76735 4.11572 3.82147 
ITEM: TIMESTEP
8500
ITEM: NUMBER OF ATOMS
1
ITEM: BOX BOUNDS pp pp pp
0.0000000000000000e+00 1.4240600000000001e+01
0.0000000000000000e+00 1.4240600000000001e+01
0.0000000000000000e+00 1.4240600000000001e+01
ITEM: ATOMS id type x y z 
126 2 7.76689 4.11563 3.82275 
ITEM: TIMESTEP
8600
ITEM: NUMBER OF ATOMS
1
ITEM: BOX BOUNDS pp pp pp
0.0000000000000000e+00 1.4240600000000001e+01
0.0000000000000000e+00 1.4240600000000001e+01
0.0000000000000000e+00 1.4240600000000001e+01
ITEM: ATOMS id type x y z 
126 2 7.76665 4.11539 3.82365 
ITEM: TIMESTEP
8700
ITEM: NUMBER OF ATOMS
1
ITEM: BOX BOUNDS pp pp pp
0.0000000000000000e+00 1.4240600000000001e+01
0.0000000000000000e+00 1.4240600000000001e+01
0.0000000000000000e+00 1.4240600000000001e+01
ITEM: ATOMS id type x y z 
126 2 7.7669 4.1153 3.82423 
ITEM: TIMESTEP
8800
ITEM: NUMBER OF ATOMS
1
ITEM: BOX BOUNDS pp pp pp
0.0000000000000000e+00 1.4240600000000001e+01
0.0000000000000000e+00 1.4240600000000001e+01
0.0000000000000000e+00 1.4240600000000001e+01
ITEM: ATOMS id type x y z 
126 2 7.76555 4.11586 3.82658 
ITEM: TIMESTEP
8900
ITEM: NUMBER OF ATOMS
1
ITEM: BOX BOUNDS pp pp pp
0.0000000000000000e+00 1.4240600000000001e+01
0.0000000000000000e+00 1.4240600000000001e+01
0.0000000000000000e+00 1.4240600000000001e+01
ITEM: ATOMS id type x y z 
126 2 7.76769 4.11485 3.82445 
ITEM: TIMESTEP
9000
ITEM: NUMBER OF ATOMS
1
ITEM: BOX BOUNDS pp pp pp
0.0000000000000000e+00 1.4240600000000001e+01
0.0000000000000000e+00 1.4240600000000001e+01
0.0000000000000000e+00 1.4240600000000001e+01
ITEM: ATOMS id type x y z 
126 2 7.76797 4.11465 3.82482 
ITEM: TIMESTEP
9100
ITEM: NUMBER OF ATOMS
1
ITEM: BOX BOUNDS pp pp pp
0.0000000000000000e+00 1.4240600000000001e+01
0.0000000000000000e+00 1.4240600000000001e+01
0.0000000000000000e+00 1.4240600000000001e+01
ITEM: ATOMS id type x y z 
126 2 7.76936 4.11412 3.8236 
ITEM: TIMESTEP
9200
ITEM: NUMBER OF ATOMS
1
ITEM: BOX BOUNDS pp pp pp
0.0000000000000000e+00 1.4240600000000001e+01
0.0000000000000000e+00 1.4240600000000001e+01
0.0000000000000000e+00 1.4240600000000001e+01
ITEM: ATOMS id type x y z 
126 2 7.77189 4.1129 3.82061 
ITEM: TIMESTEP
9300
ITEM: NUMBER OF ATOMS
1
ITEM: BOX BOUNDS pp pp pp
0.0000000000000000e+00 1.4240600000000001e+01
0.0000000000000000e+00 1.4240600000000001e+01
0.0000000000000000e+00 1.4240600000000001e+01
ITEM: ATOMS id type x y z 
126 2 7.86361 4.07518 3.69154 
ITEM: TIMESTEP
9400
ITEM: NUMBER OF ATOMS
1
ITEM: BOX BOUNDS pp pp pp
0.0000000000000000e+00 1.4240600000000001e+01
0.0000000000000000e+00 1.4240600000000001e+01
0.0000000000000000e+00 1.4240600000000001e+01
ITEM: ATOMS id type x y z 
126 2 7.82365 4.09131 3.76412 
ITEM: TIMESTEP
9500
ITEM: NUMBER OF ATOMS
1
ITEM: BOX BOUNDS pp pp pp
0.0000000000000000e+00 1.4240600000000001e+01
0.0000000000000000e+00 1.4240600000000001e+01
0.0000000000000000e+00 1.4240600000000001e+01
ITEM: ATOMS id type x y z 
126 2 7.77288 4.11086 3.82062 
ITEM: TIMESTEP
9600
ITEM: NUMBER OF ATOMS
1
ITEM: BOX BOUNDS pp pp pp
0.0000000000000000e+00 1.4240600000000001e+01
0.0000000000000000e+00 1.4240600000000001e+01
0.0000000000000000e+00 1.4240600000000001e+01
ITEM: ATOMS id type x y z 
126 2 7.76978 4.11343 3.8246 
ITEM: TIMESTEP
9700
ITEM: NUMBER OF ATOMS
1
ITEM: BOX BOUNDS pp pp pp
0.0000000000000000e+00 1.4240600000000001e+01
0.0000000000000000e+00 1.4240600000000001e+01
0.0000000000000000e+00 1.4240600000000001e+01
ITEM: ATOMS id type x y z 
126 2 7.91214 4.09019 3.67574 
ITEM: TIMESTEP
9800
ITEM: NUMBER OF ATOMS
1
ITEM: BOX BOUNDS pp pp pp
0.0000000000000000e+00 1.4240600000000001e+01
0.0000000000000000e+00 1.4240600000000001e+01
0.0000000000000000e+00 1.4240600000000001e+01
ITEM: ATOMS id type x y z 
126 2 7.78687 4.10427 3.8054 
ITEM: TIMESTEP
9900
ITEM: NUMBER OF ATOMS
1
ITEM: BOX BOUNDS pp pp pp
0.0000000000000000e+00 1.4240600000000001e+01
0.0000000000000000e+00 1.4240600000000001e+01
0.0000000000000000e+00 1.4240600000000001e+01
ITEM: ATOMS id type x y z 
126 2 8.00709 4.06098 3.53762 
ITEM: TIMESTEP
10000
ITEM: NUMBER OF ATOMS
1
ITEM: BOX BOUNDS pp pp pp
0.0000000000000000e+00 1.4240600000000001e+01
0.0000000000000000e+00 1.4240600000000001e+01
0.0000000000000000e+00 1.4240600000000001e+01
ITEM: ATOMS id type x y z 
126 2 7.79857 4.1007 3.79283 
ITEM: TIMESTEP
10100
ITEM: NUMBER OF ATOMS
1
ITEM: BOX BOUNDS pp pp pp
0.0000000000000000e+00 1.4240600000000001e+01
0.0000000000000000e+00 1.4240600000000001e+01
0.0000000000000000e+00 1.4240600000000001e+01
ITEM: ATOMS id type x y z 
126 2 7.77198 4.11145 3.82207 
ITEM: TIMESTEP
10200
ITEM: NUMBER OF ATOMS
1
ITEM: BOX BOUNDS pp pp pp
0.0000000000000000e+00 1.4240600000000001e+01
0.0000000000000000e+00 1.4240600000000001e+01
0.0000000000000000e+00 1.4240600000000001e+01
ITEM: ATOMS id type x y z 
126 2 7.76957 4.11324 3.82538 
ITEM: TIMESTEP
10300
ITEM: NUMBER OF ATOMS
1
ITEM: BOX BOUNDS pp pp pp
0.0000000000000000e+00 1.4240600000000001e+01
0.0000000000000000e+00 1.4240600000000001e+01
0.0000000000000000e+00 1.4240600000000001e+01
ITEM: ATOMS id type x y z 
126 2 7.97918 4.07021 3.57641 
ITEM: TIMESTEP
10400
ITEM: NUMBER OF ATOMS
1
ITEM: BOX BOUNDS pp pp pp
0.0000000000000000e+00 1.4240600000000001e+01
0.0000000000000000e+00 1.4240600000000001e+01
0.0000000000000000e+00 1.4240600000000001e+01
ITEM: ATOMS id type x y z 
126 2 7.82094 4.0931 3.76918 
ITEM: TIMESTEP
10500
ITEM: NUMBER OF ATOMS
1
ITEM: BOX BOUNDS pp pp pp
0.0000000000000000e+00 1.4240600000000001e+01
0.0000000000000000e+00 1.4240600000000001e+01
0.0000000000000000e+00 1.4240600000000001e+01
ITEM: ATOMS id type x y z 
126 2 7.775 4.10976 3.81909 
ITEM: TIMESTEP
10600
ITEM: NUMBER OF ATOMS
1
ITEM: BOX BOUNDS pp pp pp
0.0000000000000000e+00 1.4240600000000001e+01
0.0000000000000000e+00 1.4240600000000001e+01
0.0000000000000000e+00 1.4240600000000001e+01
ITEM: ATOMS id type x y z 
126 2 7.77187 4.11213 3.82304 
ITEM: TIMESTEP
10700
ITEM: NUMBER OF ATOMS
1
ITEM: BOX BOUNDS pp pp pp
0.0000000000000000e+00 1.4240600000000001e+01
0.0000000000000000e+00 1.4240600000000001e+01
0.0000000000000000e+00 1.4240600000000001e+01
ITEM: ATOMS id type x y z 
126 2 7.77041 4.11308 3.82552 
ITEM: TIMESTEP
10800
ITEM: NUMBER OF ATOMS
1
ITEM: BOX BOUNDS pp pp pp
0.0000000000000000e+00 1.4240600000000001e+01
0.0000000000000000e+00 1.4240600000000001e+01
0.0000000000000000e+00 1.4240600000000001e+01
ITEM: ATOMS id type x y z 
126 2 7.7988 4.10067 3.78482 
ITEM: TIMESTEP
10900
ITEM: NUMBER OF ATOMS
1
ITEM: BOX BOUNDS pp pp pp
0.0000000000000000e+00 1.4240600000000001e+01
0.0000000000000000e+00 1.4240600000000001e+01
0.0000000000000000e+00 1.4240600000000001e+01
ITEM: ATOMS id type x y z 