ITEM: TIMESTEP
0
ITEM: NUMBER OF ATOMS
1
ITEM: BOX BOUNDS pp pp pp
0.0000000000000000e+00 1.4240600000000001e+01
0.0000000000000000e+00 1.4240600000000001e+01
0.0000000000000000e+00 1.4240600000000001e+01
ITEM: ATOMS id type x y z 
126 2 7.1203 7.1203 7.1203 
ITEM: TIMESTEP
19
ITEM: NUMBER OF ATOMS
1
ITEM: BOX BOUNDS pp pp pp
0.0000000000000000e+00 1.4240600000000001e+01
0.0000000000000000e+00 1.4240600000000001e+01
0.0000000000000000e+00 1.4240600000000001e+01
ITEM: ATOMS id type x y z 
126 2 7.12096 7.11553 7.12259 
ITEM: TIMESTEP
0
ITEM: NUMBER OF ATOMS
1
ITEM: BOX BOUNDS pp pp pp
0.0000000000000000e+00 1.4240600000000001e+01
0.0000000000000000e+00 1.4240600000000001e+01
0.0000000000000000e+00 1.4240600000000001e+01
ITEM: ATOMS id type x y z 
126 2 5.19329 9.04684 7.0986 
ITEM: TIMESTEP
100
ITEM: NUMBER OF ATOMS
1
ITEM: BOX BOUNDS pp pp pp
0.0000000000000000e+00 1.4240600000000001e+01
0.0000000000000000e+00 1.4240600000000001e+01
0.0000000000000000e+00 1.4240600000000001e+01
ITEM: ATOMS id type x y z 
126 2 4.69479 9.57669 7.07921 
ITEM: TIMESTEP
200
ITEM: NUMBER OF ATOMS
1
ITEM: BOX BOUNDS pp pp pp
0.0000000000000000e+00 1.4240600000000001e+01
0.0000000000000000e+00 1.4240600000000001e+01
0.0000000000000000e+00 1.4240600000000001e+01
ITEM: ATOMS id type x y z 
126 2 5.18591 9.05172 7.11764 
ITEM: TIMESTEP
300
ITEM: NUMBER OF ATOMS
1
ITEM: BOX BOUNDS pp pp pp
0.0000000000000000e+00 1.4240600000000001e+01
0.0000000000000000e+00 1.4240600000000001e+01
0.0000000000000000e+00 1.4240600000000001e+01
ITEM: ATOMS id type x y z 
126 2 5.18955 9.03994 7.11789 
ITEM: TIMESTEP
400
ITEM: NUMBER OF ATOMS
1
ITEM: BOX BOUNDS pp pp pp
0.0000000000000000e+00 1.4240600000000001e+01
0.0000000000000000e+00 1.4240600000000001e+01
0.0000000000000000e+00 1.4240600000000001e+01
ITEM: ATOMS id type x y z 
126 2 5.18551 9.03568 7.11925 
ITEM: TIMESTEP
500
ITEM: NUMBER OF ATOMS
1
ITEM: BOX BOUNDS pp pp pp
0.0000000000000000e+00 1.4240600000000001e+01
0.0000000000000000e+00 1.4240600000000001e+01
0.0000000000000000e+00 1.4240600000000001e+01
ITEM: ATOMS id type x y z 
126 2 5.18326 9.03308 7.12044 
ITEM: TIMESTEP
600
ITEM: NUMBER OF ATOMS
1
ITEM: BOX BOUNDS pp pp pp
0.0000000000000000e+00 1.4240600000000001e+01
0.0000000000000000e+00 1.4240600000000001e+01
0.0000000000000000e+00 1.4240600000000001e+01
ITEM: ATOMS id type x y z 
126 2 5.18391 9.03425 7.11942 
ITEM: TIMESTEP
700
ITEM: NUMBER OF ATOMS
1
ITEM: BOX BOUNDS pp pp pp
0.0000000000000000e+00 1.4240600000000001e+01
0.0000000000000000e+00 1.4240600000000001e+01
0.0000000000000000e+00 1.4240600000000001e+01
ITEM: ATOMS id type x y z 
126 2 5.18083 9.03125 7.11727 
ITEM: TIMESTEP
800
ITEM: NUMBER OF ATOMS
1
ITEM: BOX BOUNDS pp pp pp
0.0000000000000000e+00 1.4240600000000001e+01
0.0000000000000000e+00 1.4240600000000001e+01
0.0000000000000000e+00 1.4240600000000001e+01
ITEM: ATOMS id type x y z 
126 2 5.16568 9.01639 7.1198 
ITEM: TIMESTEP
900
ITEM: NUMBER OF ATOMS
1
ITEM: BOX BOUNDS pp pp pp
0.0000000000000000e+00 1.4240600000000001e+01
0.0000000000000000e+00 1.4240600000000001e+01
0.0000000000000000e+00 1.4240600000000001e+01
ITEM: ATOMS id type x y z 
126 2 5.09347 8.94873 7.123 
ITEM: TIMESTEP
1000
ITEM: NUMBER OF ATOMS
1
ITEM: BOX BOUNDS pp pp pp
0.0000000000000000e+00 1.4240600000000001e+01
0.0000000000000000e+00 1.4240600000000001e+01
0.0000000000000000e+00 1.4240600000000001e+01
ITEM: ATOMS id type x y z 
126 2 5.07416 8.9314 7.12751 
ITEM: TIMESTEP
1100
ITEM: NUMBER OF ATOMS
1
ITEM: BOX BOUNDS pp pp pp
0.0000000000000000e+00 1.4240600000000001e+01
0.0000000000000000e+00 1.4240600000000001e+01
0.0000000000000000e+00 1.4240600000000001e+01
ITEM: ATOMS id type x y z 
126 2 5.06204 8.92086 7.12169 
ITEM: TIMESTEP
1200
ITEM: NUMBER OF ATOMS
1
ITEM: BOX BOUNDS pp pp pp
0.0000000000000000e+00 1.4240600000000001e+01
0.0000000000000000e+00 1.4240600000000001e+01
0.0000000000000000e+00 1.4240600000000001e+01
ITEM: ATOMS id type x y z 
126 2 5.0599 8.91904 7.11942 
ITEM: TIMESTEP
1300
ITEM: NUMBER OF ATOMS
1
ITEM: BOX BOUNDS pp pp pp
0.0000000000000000e+00 1.4240600000000001e+01
0.0000000000000000e+00 1.4240600000000001e+01
0.0000000000000000e+00 1.4240600000000001e+01
ITEM: ATOMS id type x y z 
126 2 5.06005 8.91916 7.1182 
ITEM: TIMESTEP
1400
ITEM: NUMBER OF ATOMS
1
ITEM: BOX BOUNDS pp pp pp
0.0000000000000000e+00 1.4240600000000001e+01
0.0000000000000000e+00 1.4240600000000001e+01
0.0000000000000000e+00 1.4240600000000001e+01
ITEM: ATOMS id type x y z 
126 2 5.06089 8.91988 7.11763 
ITEM: TIMESTEP
1500
ITEM: NUMBER OF ATOMS
1
ITEM: BOX BOUNDS pp pp pp
0.0000000000000000e+00 1.4240600000000001e+01
0.0000000000000000e+00 1.4240600000000001e+01
0.0000000000000000e+00 1.4240600000000001e+01
ITEM: ATOMS id type x y z 
126 2 5.06192 8.92077 7.11769 
ITEM: TIMESTEP
1600
ITEM: NUMBER OF ATOMS
1
ITEM: BOX BOUNDS pp pp pp
0.0000000000000000e+00 1.4240600000000001e+01
0.0000000000000000e+00 1.4240600000000001e+01
0.0000000000000000e+00 1.4240600000000001e+01
ITEM: ATOMS id type x y z 
126 2 5.063 8.92171 7.11771 
ITEM: TIMESTEP
1700
ITEM: NUMBER OF ATOMS
1
ITEM: BOX BOUNDS pp pp pp
0.0000000000000000e+00 1.4240600000000001e+01
0.0000000000000000e+00 1.4240600000000001e+01
0.0000000000000000e+00 1.4240600000000001e+01
ITEM: ATOMS id type x y z 
126 2 5.06396 8.92256 7.11779 
ITEM: TIMESTEP
1800
ITEM: NUMBER OF ATOMS
1
ITEM: BOX BOUNDS pp pp pp
0.0000000000000000e+00 1.4240600000000001e+01
0.0000000000000000e+00 1.4240600000000001e+01
0.0000000000000000e+00 1.4240600000000001e+01
ITEM: ATOMS id type x y z 
126 2 5.0648 8.92331 7.11784 
ITEM: TIMESTEP
1900
ITEM: NUMBER OF ATOMS
1
ITEM: BOX BOUNDS pp pp pp
0.0000000000000000e+00 1.4240600000000001e+01
0.0000000000000000e+00 1.4240600000000001e+01
0.0000000000000000e+00 1.4240600000000001e+01
ITEM: ATOMS id type x y z 
126 2 5.06564 8.92411 7.11827 
ITEM: TIMESTEP
2000
ITEM: NUMBER OF ATOMS
1
ITEM: BOX BOUNDS pp pp pp
0.0000000000000000e+00 1.4240600000000001e+01
0.0000000000000000e+00 1.4240600000000001e+01
0.0000000000000000e+00 1.4240600000000001e+01
ITEM: ATOMS id type x y z 
126 2 5.06642 8.92482 7.11842 
ITEM: TIMESTEP
2100
ITEM: NUMBER OF ATOMS
1
ITEM: BOX BOUNDS pp pp pp
0.0000000000000000e+00 1.4240600000000001e+01
0.0000000000000000e+00 1.4240600000000001e+01
0.0000000000000000e+00 1.4240600000000001e+01
ITEM: ATOMS id type x y z 
126 2 5.06712 8.92543 7.11861 
ITEM: TIMESTEP
2200
ITEM: NUMBER OF ATOMS
1
ITEM: BOX BOUNDS pp pp pp
0.0000000000000000e+00 1.4240600000000001e+01
0.0000000000000000e+00 1.4240600000000001e+01
0.0000000000000000e+00 1.4240600000000001e+01
ITEM: ATOMS id type x y z 
126 2 5.06774 8.92598 7.11885 
ITEM: TIMESTEP
2300
ITEM: NUMBER OF ATOMS
1
ITEM: BOX BOUNDS pp pp pp
0.0000000000000000e+00 1.4240600000000001e+01
0.0000000000000000e+00 1.4240600000000001e+01
0.0000000000000000e+00 1.4240600000000001e+01
ITEM: ATOMS id type x y z 
126 2 5.0683 8.92648 7.11892 
ITEM: TIMESTEP
2400
ITEM: NUMBER OF ATOMS
1
ITEM: BOX BOUNDS pp pp pp
0.0000000000000000e+00 1.4240600000000001e+01
0.0000000000000000e+00 1.4240600000000001e+01
0.0000000000000000e+00 1.4240600000000001e+01
ITEM: ATOMS id type x y z 
126 2 5.06884 8.92696 7.11897 
ITEM: TIMESTEP
2500
ITEM: NUMBER OF ATOMS
1
ITEM: BOX BOUNDS pp pp pp
0.0000000000000000e+00 1.4240600000000001e+01
0.0000000000000000e+00 1.4240600000000001e+01
0.0000000000000000e+00 1.4240600000000001e+01
ITEM: ATOMS id type x y z 
126 2 5.06927 8.92734 7.11907 
ITEM: TIMESTEP
2600
ITEM: NUMBER OF ATOMS
1
ITEM: BOX BOUNDS pp pp pp
0.0000000000000000e+00 1.4240600000000001e+01
0.0000000000000000e+00 1.4240600000000001e+01
0.0000000000000000e+00 1.4240600000000001e+01
ITEM: ATOMS id type x y z 
126 2 5.06974 8.92776 7.11916 
ITEM: TIMESTEP
2700
ITEM: NUMBER OF ATOMS
1
ITEM: BOX BOUNDS pp pp pp
0.0000000000000000e+00 1.4240600000000001e+01
0.0000000000000000e+00 1.4240600000000001e+01
0.0000000000000000e+00 1.4240600000000001e+01
ITEM: ATOMS id type x y z 
126 2 5.07011 8.92809 7.11921 
ITEM: TIMESTEP
2800
ITEM: NUMBER OF ATOMS
1
ITEM: BOX BOUNDS pp pp pp
0.0000000000000000e+00 1.4240600000000001e+01
0.0000000000000000e+00 1.4240600000000001e+01
0.0000000000000000e+00 1.4240600000000001e+01
ITEM: ATOMS id type x y z 
126 2 5.07047 8.92841 7.11924 
ITEM: TIMESTEP
2900
ITEM: NUMBER OF ATOMS
1
ITEM: BOX BOUNDS pp pp pp
0.0000000000000000e+00 1.4240600000000001e+01
0.0000000000000000e+00 1.4240600000000001e+01
0.0000000000000000e+00 1.4240600000000001e+01
ITEM: ATOMS id type x y z 
126 2 5.07079 8.9287 7.11929 
ITEM: TIMESTEP
3000
ITEM: NUMBER OF ATOMS
1
ITEM: BOX BOUNDS pp pp pp
0.0000000000000000e+00 1.4240600000000001e+01
0.0000000000000000e+00 1.4240600000000001e+01
0.0000000000000000e+00 1.4240600000000001e+01
ITEM: ATOMS id type x y z 
126 2 5.07105 8.92892 7.11937 
ITEM: TIMESTEP
3100
ITEM: NUMBER OF ATOMS
1
ITEM: BOX BOUNDS pp pp pp
0.0000000000000000e+00 1.4240600000000001e+01
0.0000000000000000e+00 1.4240600000000001e+01
0.0000000000000000e+00 1.4240600000000001e+01
ITEM: ATOMS id type x y z 
126 2 5.07126 8.92912 7.11944 
ITEM: TIMESTEP
3200
ITEM: NUMBER OF ATOMS
1
ITEM: BOX BOUNDS pp pp pp
0.0000000000000000e+00 1.4240600000000001e+01
0.0000000000000000e+00 1.4240600000000001e+01
0.0000000000000000e+00 1.4240600000000001e+01
ITEM: ATOMS id type x y z 
126 2 5.07145 8.92928 7.11948 
ITEM: TIMESTEP
3259
ITEM: NUMBER OF ATOMS
1
ITEM: BOX BOUNDS pp pp pp
0.0000000000000000e+00 1.4240600000000001e+01
0.0000000000000000e+00 1.4240600000000001e+01
0.0000000000000000e+00 1.4240600000000001e+01
ITEM: ATOMS id type x y z 
126 2 5.07155 8.92937 7.11949 
ITEM: TIMESTEP
3300
ITEM: NUMBER OF ATOMS
1
ITEM: BOX BOUNDS pp pp pp
0.0000000000000000e+00 1.4240600000000001e+01
0.0000000000000000e+00 1.4240600000000001e+01
0.0000000000000000e+00 1.4240600000000001e+01
ITEM: ATOMS id type x y z 
126 2 4.78402 8.82362 7.11263 
ITEM: TIMESTEP
3400
ITEM: NUMBER OF ATOMS
1
ITEM: BOX BOUNDS pp pp pp
0.0000000000000000e+00 1.4240600000000001e+01
0.0000000000000000e+00 1.4240600000000001e+01
0.0000000000000000e+00 1.4240600000000001e+01
ITEM: ATOMS id type x y z 
126 2 1.84835 11.0826 7.151 
ITEM: TIMESTEP
3500
ITEM: NUMBER OF ATOMS
1
ITEM: BOX BOUNDS pp pp pp
0.0000000000000000e+00 1.4240600000000001e+01
0.0000000000000000e+00 1.4240600000000001e+01
0.0000000000000000e+00 1.4240600000000001e+01
ITEM: ATOMS id type x y z 
126 2 2.50059 10.5665 7.07926 
ITEM: TIMESTEP
3600
ITEM: NUMBER OF ATOMS
1
ITEM: BOX BOUNDS pp pp pp
0.0000000000000000e+00 1.4240600000000001e+01
0.0000000000000000e+00 1.4240600000000001e+01
0.0000000000000000e+00 1.4240600000000001e+01
ITEM: ATOMS id type x y z 
126 2 2.52902 10.523 7.07479 
ITEM: TIMESTEP
3700
ITEM: NUMBER OF ATOMS
1
ITEM: BOX BOUNDS pp pp pp
0.0000000000000000e+00 1.4240600000000001e+01
0.0000000000000000e+00 1.4240600000000001e+01
0.0000000000000000e+00 1.4240600000000001e+01
ITEM: ATOMS id type x y z 
126 2 2.55067 10.4422 7.07104 
ITEM: TIMESTEP
3800
ITEM: NUMBER OF ATOMS
1
ITEM: BOX BOUNDS pp pp pp
0.0000000000000000e+00 1.4240600000000001e+01
0.0000000000000000e+00 1.4240600000000001e+01
0.0000000000000000e+00 1.4240600000000001e+01
ITEM: ATOMS id type x y z 
126 2 2.87504 9.9481 7.07367 
ITEM: TIMESTEP
3900
ITEM: NUMBER OF ATOMS
1
ITEM: BOX BOUNDS pp pp pp
0.0000000000000000e+00 1.4240600000000001e+01
0.0000000000000000e+00 1.4240600000000001e+01
0.0000000000000000e+00 1.4240600000000001e+01
ITEM: ATOMS id type x y z 
126 2 3.15557 9.45892 7.09851 
ITEM: TIMESTEP
4000
ITEM: NUMBER OF ATOMS
1
ITEM: BOX BOUNDS pp pp pp
0.0000000000000000e+00 1.4240600000000001e+01
0.0000000000000000e+00 1.4240600000000001e+01
0.0000000000000000e+00 1.4240600000000001e+01
ITEM: ATOMS id type x y z 
126 2 3.40996 9.03584 7.10224 
ITEM: TIMESTEP
4100
ITEM: NUMBER OF ATOMS
1
ITEM: BOX BOUNDS pp pp pp
0.0000000000000000e+00 1.4240600000000001e+01
0.0000000000000000e+00 1.4240600000000001e+01
0.0000000000000000e+00 1.4240600000000001e+01
ITEM: ATOMS id type x y z 
126 2 3.44354 8.985 7.17682 
ITEM: TIMESTEP
4200
ITEM: NUMBER OF ATOMS
1
ITEM: BOX BOUNDS pp pp pp
0.0000000000000000e+00 1.4240600000000001e+01
0.0000000000000000e+00 1.4240600000000001e+01
0.0000000000000000e+00 1.4240600000000001e+01
ITEM: ATOMS id type x y z 
126 2 3.72223 8.59812 7.115 
ITEM: TIMESTEP
4300
ITEM: NUMBER OF ATOMS
1
ITEM: BOX BOUNDS pp pp pp
0.0000000000000000e+00 1.4240600000000001e+01
0.0000000000000000e+00 1.4240600000000001e+01
0.0000000000000000e+00 1.4240600000000001e+01
ITEM: ATOMS id type x y z 
126 2 3.88617 8.42713 7.12001 
ITEM: TIMESTEP
4400
ITEM: NUMBER OF ATOMS
1
ITEM: BOX BOUNDS pp pp pp
0.0000000000000000e+00 1.4240600000000001e+01
0.0000000000000000e+00 1.4240600000000001e+01
0.0000000000000000e+00 1.4240600000000001e+01
ITEM: ATOMS id type x y z 
126 2 4.15382 8.22582 7.12406 
ITEM: TIMESTEP
4500
ITEM: NUMBER OF ATOMS
1
ITEM: BOX BOUNDS pp pp pp
0.0000000000000000e+00 1.4240600000000001e+01
0.0000000000000000e+00 1.4240600000000001e+01
0.0000000000000000e+00 1.4240600000000001e+01
ITEM: ATOMS id type x y z 
126 2 4.88356 7.86446 7.13105 
ITEM: TIMESTEP
4600
ITEM: NUMBER OF ATOMS
1
ITEM: BOX BOUNDS pp pp pp
0.0000000000000000e+00 1.4240600000000001e+01
0.0000000000000000e+00 1.4240600000000001e+01
0.0000000000000000e+00 1.4240600000000001e+01
ITEM: ATOMS id type x y z 
126 2 5.38433 7.53332 7.13155 
ITEM: TIMESTEP
4700
ITEM: NUMBER OF ATOMS
1
ITEM: BOX BOUNDS pp pp pp
0.0000000000000000e+00 1.4240600000000001e+01
0.0000000000000000e+00 1.4240600000000001e+01
0.0000000000000000e+00 1.4240600000000001e+01
ITEM: ATOMS id type x y z 
126 2 5.0712 7.61529 7.13541 
ITEM: TIMESTEP
4800
ITEM: NUMBER OF ATOMS
1
ITEM: BOX BOUNDS pp pp pp
0.0000000000000000e+00 1.4240600000000001e+01
0.0000000000000000e+00 1.4240600000000001e+01
0.0000000000000000e+00 1.4240600000000001e+01
ITEM: ATOMS id type x y z 
126 2 4.10275 8.35421 7.11819 
ITEM: TIMESTEP
4900
ITEM: NUMBER OF ATOMS
1
ITEM: BOX BOUNDS pp pp pp
0.0000000000000000e+00 1.4240600000000001e+01
0.0000000000000000e+00 1.4240600000000001e+01
0.0000000000000000e+00 1.4240600000000001e+01
ITEM: ATOMS id type x y z 
126 2 2.9313 9.82263 7.10564 
ITEM: TIMESTEP
5000
ITEM: NUMBER OF ATOMS
1
ITEM: BOX BOUNDS pp pp pp
0.0000000000000000e+00 1.4240600000000001e+01
0.0000000000000000e+00 1.4240600000000001e+01
0.0000000000000000e+00 1.4240600000000001e+01
ITEM: ATOMS id type x y z 
126 2 1.90792 11.0479 7.06139 
ITEM: TIMESTEP
5100
ITEM: NUMBER OF ATOMS
1
ITEM: BOX BOUNDS pp pp pp
0.0000000000000000e+00 1.4240600000000001e+01
0.0000000000000000e+00 1.4240600000000001e+01
0.0000000000000000e+00 1.4240600000000001e+01
ITEM: ATOMS id type x y z 
126 2 9.2291 3.10385 6.83178 
ITEM: TIMESTEP
5200
ITEM: NUMBER OF ATOMS
1
ITEM: BOX BOUNDS pp pp pp
0.0000000000000000e+00 1.4240600000000001e+01
0.0000000000000000e+00 1.4240600000000001e+01
0.0000000000000000e+00 1.4240600000000001e+01
ITEM: ATOMS id type x y z 
126 2 11.3364 1.79314 6.84066 
ITEM: TIMESTEP
5300
ITEM: NUMBER OF ATOMS
1
ITEM: BOX BOUNDS pp pp pp
0.0000000000000000e+00 1.4240600000000001e+01
0.0000000000000000e+00 1.4240600000000001e+01
0.0000000000000000e+00 1.4240600000000001e+01
ITEM: ATOMS id type x y z 
126 2 2.73043 9.69328 5.97816 
ITEM: TIMESTEP
5400
ITEM: NUMBER OF ATOMS
1
ITEM: BOX BOUNDS pp pp pp
0.0000000000000000e+00 1.4240600000000001e+01
0.0000000000000000e+00 1.4240600000000001e+01
0.0000000000000000e+00 1.4240600000000001e+01
ITEM: ATOMS id type x y z 
126 2 2.16845 10.2289 5.91025 
ITEM: TIMESTEP
5500
ITEM: NUMBER OF ATOMS
1
ITEM: BOX BOUNDS pp pp pp
0.0000000000000000e+00 1.4240600000000001e+01
0.0000000000000000e+00 1.4240600000000001e+01
0.0000000000000000e+00 1.4240600000000001e+01
ITEM: ATOMS id type x y z 
126 2 11.8084 0.585706 4.27126 
ITEM: TIMESTEP
5600
ITEM: NUMBER OF ATOMS
1
ITEM: BOX BOUNDS pp pp pp
0.0000000000000000e+00 1.4240600000000001e+01
0.0000000000000000e+00 1.4240600000000001e+01
0.0000000000000000e+00 1.4240600000000001e+01
ITEM: ATOMS id type x y z 
126 2 6.85283 6.17234 1.86879 
ITEM: TIMESTEP
5700
ITEM: NUMBER OF ATOMS
1
ITEM: BOX BOUNDS pp pp pp
0.0000000000000000e+00 1.4240600000000001e+01
0.0000000000000000e+00 1.4240600000000001e+01
0.0000000000000000e+00 1.4240600000000001e+01
ITEM: ATOMS id type x y z 
126 2 1.02828 12.0618 5.11328 
ITEM: TIMESTEP
5800
ITEM: NUMBER OF ATOMS
1
ITEM: BOX BOUNDS pp pp pp
0.0000000000000000e+00 1.4240600000000001e+01
0.0000000000000000e+00 1.4240600000000001e+01
0.0000000000000000e+00 1.4240600000000001e+01
ITEM: ATOMS id type x y z 
126 2 10.062 2.70795 7.64538 
ITEM: TIMESTEP
5900
ITEM: NUMBER OF ATOMS
1
ITEM: BOX BOUNDS pp pp pp
0.0000000000000000e+00 1.4240600000000001e+01
0.0000000000000000e+00 1.4240600000000001e+01
0.0000000000000000e+00 1.4240600000000001e+01
ITEM: ATOMS id type x y z 
126 2 9.30108 2.08469 7.72663 
ITEM: TIMESTEP
6000
ITEM: NUMBER OF ATOMS
1
ITEM: BOX BOUNDS pp pp pp
0.0000000000000000e+00 1.4240600000000001e+01
0.0000000000000000e+00 1.4240600000000001e+01
0.0000000000000000e+00 1.4240600000000001e+01
ITEM: ATOMS id type x y z 
126 2 8.86634 6.89165 6.07545 
ITEM: TIMESTEP
6100
ITEM: NUMBER OF ATOMS
1
ITEM: BOX BOUNDS pp pp pp
0.0000000000000000e+00 1.4240600000000001e+01
0.0000000000000000e+00 1.4240600000000001e+01
0.0000000000000000e+00 1.4240600000000001e+01
ITEM: ATOMS id type x y z 
126 2 8.99557 12.6961 10.3768 
ITEM: TIMESTEP
6200
ITEM: NUMBER OF ATOMS
1
ITEM: BOX BOUNDS pp pp pp
0.0000000000000000e+00 1.4240600000000001e+01
0.0000000000000000e+00 1.4240600000000001e+01
0.0000000000000000e+00 1.4240600000000001e+01
ITEM: ATOMS id type x y z 
126 2 2.49939 13.9381 12.4826 
ITEM: TIMESTEP
6300
ITEM: NUMBER OF ATOMS
1
ITEM: BOX BOUNDS pp pp pp
0.0000000000000000e+00 1.4240600000000001e+01
0.0000000000000000e+00 1.4240600000000001e+01
0.0000000000000000e+00 1.4240600000000001e+01
ITEM: ATOMS id type x y z 
126 2 10.3023 11.3101 10.887 
ITEM: TIMESTEP
6400
ITEM: NUMBER OF ATOMS
1
ITEM: BOX BOUNDS pp pp pp
0.0000000000000000e+00 1.4240600000000001e+01
0.0000000000000000e+00 1.4240600000000001e+01
0.0000000000000000e+00 1.4240600000000001e+01
ITEM: ATOMS id type x y z 
126 2 11.3882 6.29505 7.05713 
ITEM: TIMESTEP
6500
ITEM: NUMBER OF ATOMS
1
ITEM: BOX BOUNDS pp pp pp
0.0000000000000000e+00 1.4240600000000001e+01
0.0000000000000000e+00 1.4240600000000001e+01
0.0000000000000000e+00 1.4240600000000001e+01
ITEM: ATOMS id type x y z 
126 2 1.15306 7.82171 6.13238 
ITEM: TIMESTEP
6600
ITEM: NUMBER OF ATOMS
1
ITEM: BOX BOUNDS pp pp pp
0.0000000000000000e+00 1.4240600000000001e+01
0.0000000000000000e+00 1.4240600000000001e+01
0.0000000000000000e+00 1.4240600000000001e+01
ITEM: ATOMS id type x y z 
126 2 5.77191 10.2363 7.36844 
ITEM: TIMESTEP
6700
ITEM: NUMBER OF ATOMS
1
ITEM: BOX BOUNDS pp pp pp
0.0000000000000000e+00 1.4240600000000001e+01
0.0000000000000000e+00 1.4240600000000001e+01
0.0000000000000000e+00 1.4240600000000001e+01
ITEM: ATOMS id type x y z 
126 2 2.13687 9.13723 5.89656 
ITEM: TIMESTEP
6800
ITEM: NUMBER OF ATOMS
1
ITEM: BOX BOUNDS pp pp pp
0.0000000000000000e+00 1.4240600000000001e+01
0.0000000000000000e+00 1.4240600000000001e+01
0.0000000000000000e+00 1.4240600000000001e+01
ITEM: ATOMS id type x y z 
126 2 9.02474 9.75937 2.36125 
ITEM: TIMESTEP
6900
ITEM: NUMBER OF ATOMS
1
ITEM: BOX BOUNDS pp pp pp
0.0000000000000000e+00 1.4240600000000001e+01
0.0000000000000000e+00 1.4240600000000001e+01
0.0000000000000000e+00 1.4240600000000001e+01
ITEM: ATOMS id type x y z 
126 2 2.99584 0.714134 12.4683 
ITEM: TIMESTEP
7000
ITEM: NUMBER OF ATOMS
1
ITEM: BOX BOUNDS pp pp pp
0.0000000000000000e+00 1.4240600000000001e+01
0.0000000000000000e+00 1.4240600000000001e+01
0.0000000000000000e+00 1.4240600000000001e+01
ITEM: ATOMS id type x y z 
126 2 13.0935 4.50746 8.15415 
ITEM: TIMESTEP
7100
ITEM: NUMBER OF ATOMS
1
ITEM: BOX BOUNDS pp pp pp
0.0000000000000000e+00 1.4240600000000001e+01
0.0000000000000000e+00 1.4240600000000001e+01
0.0000000000000000e+00 1.4240600000000001e+01
ITEM: ATOMS id type x y z 
126 2 4.28318 12.7585 13.9313 
ITEM: TIMESTEP
7200
ITEM: NUMBER OF ATOMS
1
ITEM: BOX BOUNDS pp pp pp
0.0000000000000000e+00 1.4240600000000001e+01
0.0000000000000000e+00 1.4240600000000001e+01
0.0000000000000000e+00 1.4240600000000001e+01
ITEM: ATOMS id type x y z 
126 2 6.04806 9.66289 14.1265 
ITEM: TIMESTEP
7300
ITEM: NUMBER OF ATOMS
1
ITEM: BOX BOUNDS pp pp pp
0.0000000000000000e+00 1.4240600000000001e+01
0.0000000000000000e+00 1.4240600000000001e+01
0.0000000000000000e+00 1.4240600000000001e+01
ITEM: ATOMS id type x y z 
126 2 6.83364 8.41757 14.2237 
ITEM: TIMESTEP
7400
ITEM: NUMBER OF ATOMS
1
ITEM: BOX BOUNDS pp pp pp
0.0000000000000000e+00 1.4240600000000001e+01
0.0000000000000000e+00 1.4240600000000001e+01
0.0000000000000000e+00 1.4240600000000001e+01
ITEM: ATOMS id type x y z 
126 2 9.1748 5.07417 0.033171 
ITEM: TIMESTEP
7500
ITEM: NUMBER OF ATOMS
1
ITEM: BOX BOUNDS pp pp pp
0.0000000000000000e+00 1.4240600000000001e+01
0.0000000000000000e+00 1.4240600000000001e+01
0.0000000000000000e+00 1.4240600000000001e+01
ITEM: ATOMS id type x y z 
126 2 9.76913 3.22291 14.2137 
ITEM: TIMESTEP
7600
ITEM: NUMBER OF ATOMS
1
ITEM: BOX BOUNDS pp pp pp
0.0000000000000000e+00 1.4240600000000001e+01
0.0000000000000000e+00 1.4240600000000001e+01
0.0000000000000000e+00 1.4240600000000001e+01
ITEM: ATOMS id type x y z 
126 2 9.80784 2.90977 14.1977 
ITEM: TIMESTEP
7700
ITEM: NUMBER OF ATOMS
1
ITEM: BOX BOUNDS pp pp pp
0.0000000000000000e+00 1.4240600000000001e+01
0.0000000000000000e+00 1.4240600000000001e+01
0.0000000000000000e+00 1.4240600000000001e+01
ITEM: ATOMS id type x y z 
126 2 9.76994 2.89822 14.2154 
ITEM: TIMESTEP
7800
ITEM: NUMBER OF ATOMS
1
ITEM: BOX BOUNDS pp pp pp
0.0000000000000000e+00 1.4240600000000001e+01
0.0000000000000000e+00 1.4240600000000001e+01
0.0000000000000000e+00 1.4240600000000001e+01
ITEM: ATOMS id type x y z 
126 2 9.73107 2.90063 14.1574 
ITEM: TIMESTEP
7900
ITEM: NUMBER OF ATOMS
1
ITEM: BOX BOUNDS pp pp pp
0.0000000000000000e+00 1.4240600000000001e+01
0.0000000000000000e+00 1.4240600000000001e+01
0.0000000000000000e+00 1.4240600000000001e+01
ITEM: ATOMS id type x y z 
126 2 9.71975 2.90748 14.2184 
ITEM: TIMESTEP
8000
ITEM: NUMBER OF ATOMS
1
ITEM: BOX BOUNDS pp pp pp
0.0000000000000000e+00 1.4240600000000001e+01
0.0000000000000000e+00 1.4240600000000001e+01
0.0000000000000000e+00 1.4240600000000001e+01
ITEM: ATOMS id type x y z 
126 2 9.71397 2.91534 14.1565 
ITEM: TIMESTEP
8100
ITEM: NUMBER OF ATOMS
1
ITEM: BOX BOUNDS pp pp pp
0.0000000000000000e+00 1.4240600000000001e+01
0.0000000000000000e+00 1.4240600000000001e+01
0.0000000000000000e+00 1.4240600000000001e+01
ITEM: ATOMS id type x y z 
126 2 9.72226 2.88221 14.2037 
ITEM: TIMESTEP
8200
ITEM: NUMBER OF ATOMS
1
ITEM: BOX BOUNDS pp pp pp
0.0000000000000000e+00 1.4240600000000001e+01
0.0000000000000000e+00 1.4240600000000001e+01
0.0000000000000000e+00 1.4240600000000001e+01
ITEM: ATOMS id type x y z 
126 2 9.71961 2.896 14.2262 
ITEM: TIMESTEP
8300
ITEM: NUMBER OF ATOMS
1
ITEM: BOX BOUNDS pp pp pp
0.0000000000000000e+00 1.4240600000000001e+01
0.0000000000000000e+00 1.4240600000000001e+01
0.0000000000000000e+00 1.4240600000000001e+01
ITEM: ATOMS id type x y z 
126 2 9.71717 2.90114 14.1941 
ITEM: TIMESTEP
8400
ITEM: NUMBER OF ATOMS
1
ITEM: BOX BOUNDS pp pp pp
0.0000000000000000e+00 1.4240600000000001e+01
0.0000000000000000e+00 1.4240600000000001e+01
0.0000000000000000e+00 1.4240600000000001e+01
ITEM: ATOMS id type x y z 
126 2 9.7102 2.91264 14.1732 
ITEM: TIMESTEP
8500
ITEM: NUMBER OF ATOMS
1
ITEM: BOX BOUNDS pp pp pp
0.0000000000000000e+00 1.4240600000000001e+01
0.0000000000000000e+00 1.4240600000000001e+01
0.0000000000000000e+00 1.4240600000000001e+01
ITEM: ATOMS id type x y z 
126 2 9.725 2.88372 14.2072 
ITEM: TIMESTEP
8600
ITEM: NUMBER OF ATOMS
1
ITEM: BOX BOUNDS pp pp pp
0.0000000000000000e+00 1.4240600000000001e+01
0.0000000000000000e+00 1.4240600000000001e+01
0.0000000000000000e+00 1.4240600000000001e+01
ITEM: ATOMS id type x y z 
126 2 9.71955 2.90065 14.2259 
ITEM: TIMESTEP
8700
ITEM: NUMBER OF ATOMS
1
ITEM: BOX BOUNDS pp pp pp
0.0000000000000000e+00 1.4240600000000001e+01
0.0000000000000000e+00 1.4240600000000001e+01
0.0000000000000000e+00 1.4240600000000001e+01
ITEM: ATOMS id type x y z 
126 2 9.72594 2.88438 14.2095 
ITEM: TIMESTEP
8800
ITEM: NUMBER OF ATOMS
1
ITEM: BOX BOUNDS pp pp pp
0.0000000000000000e+00 1.4240600000000001e+01
0.0000000000000000e+00 1.4240600000000001e+01
0.0000000000000000e+00 1.4240600000000001e+01
ITEM: ATOMS id type x y z 
126 2 9.73315 2.86809 14.1923 
ITEM: TIMESTEP
8900
ITEM: NUMBER OF ATOMS
1
ITEM: BOX BOUNDS pp pp pp
0.0000000000000000e+00 1.4240600000000001e+01
0.0000000000000000e+00 1.4240600000000001e+01
0.0000000000000000e+00 1.4240600000000001e+01
ITEM: ATOMS id type x y z 
126 2 9.72285 2.8958 14.2131 
ITEM: TIMESTEP
9000
ITEM: NUMBER OF ATOMS
1
ITEM: BOX BOUNDS pp pp pp
0.0000000000000000e+00 1.4240600000000001e+01
0.0000000000000000e+00 1.4240600000000001e+01
0.0000000000000000e+00 1.4240600000000001e+01
ITEM: ATOMS id type x y z 
126 2 9.72096 2.89115 14.2215 
ITEM: TIMESTEP
9100
ITEM: NUMBER OF ATOMS
1
ITEM: BOX BOUNDS pp pp pp
0.0000000000000000e+00 1.4240600000000001e+01
0.0000000000000000e+00 1.4240600000000001e+01
0.0000000000000000e+00 1.4240600000000001e+01
ITEM: ATOMS id type x y z 
126 2 9.7198 2.89597 14.2214 
ITEM: TIMESTEP
9200
ITEM: NUMBER OF ATOMS
1
ITEM: BOX BOUNDS pp pp pp
0.0000000000000000e+00 1.4240600000000001e+01
0.0000000000000000e+00 1.4240600000000001e+01
0.0000000000000000e+00 1.4240600000000001e+01
ITEM: ATOMS id type x y z 
126 2 9.7075 2.90816 14.1408 
ITEM: TIMESTEP
9300
ITEM: NUMBER OF ATOMS
1
ITEM: BOX BOUNDS pp pp pp
0.0000000000000000e+00 1.4240600000000001e+01
0.0000000000000000e+00 1.4240600000000001e+01
0.0000000000000000e+00 1.4240600000000001e+01
ITEM: ATOMS id type x y z 
126 2 9.78865 2.66339 13.6881 
ITEM: TIMESTEP
9400
ITEM: NUMBER OF ATOMS
1
ITEM: BOX BOUNDS pp pp pp
0.0000000000000000e+00 1.4240600000000001e+01
0.0000000000000000e+00 1.4240600000000001e+01
0.0000000000000000e+00 1.4240600000000001e+01
ITEM: ATOMS id type x y z 
126 2 9.79572 2.89158 14.217 
ITEM: TIMESTEP
9500
ITEM: NUMBER OF ATOMS
1
ITEM: BOX BOUNDS pp pp pp
0.0000000000000000e+00 1.4240600000000001e+01
0.0000000000000000e+00 1.4240600000000001e+01
0.0000000000000000e+00 1.4240600000000001e+01
ITEM: ATOMS id type x y z 
126 2 9.73239 2.89397 14.2173 
ITEM: TIMESTEP
9600
ITEM: NUMBER OF ATOMS
1
ITEM: BOX BOUNDS pp pp pp
0.0000000000000000e+00 1.4240600000000001e+01
0.0000000000000000e+00 1.4240600000000001e+01
0.0000000000000000e+00 1.4240600000000001e+01
ITEM: ATOMS id type x y z 
126 2 9.72786 2.89616 14.2322 
ITEM: TIMESTEP
9700
ITEM: NUMBER OF ATOMS
1
ITEM: BOX BOUNDS pp pp pp
0.0000000000000000e+00 1.4240600000000001e+01
0.0000000000000000e+00 1.4240600000000001e+01
0.0000000000000000e+00 1.4240600000000001e+01
ITEM: ATOMS id type x y z 
126 2 9.88469 2.91144 -0.0389595 
ITEM: TIMESTEP
9800
ITEM: NUMBER OF ATOMS
1
ITEM: BOX BOUNDS pp pp pp
0.0000000000000000e+00 1.4240600000000001e+01
0.0000000000000000e+00 1.4240600000000001e+01
0.0000000000000000e+00 1.4240600000000001e+01
ITEM: ATOMS id type x y z 
126 2 9.76018 2.89712 14.2003 
ITEM: TIMESTEP
9900
ITEM: NUMBER OF ATOMS
1
ITEM: BOX BOUNDS pp pp pp
0.0000000000000000e+00 1.4240600000000001e+01
0.0000000000000000e+00 1.4240600000000001e+01
0.0000000000000000e+00 1.4240600000000001e+01
ITEM: ATOMS id type x y z 
126 2 9.8979 2.6467 13.7186 
ITEM: TIMESTEP
10000
ITEM: NUMBER OF ATOMS
1
ITEM: BOX BOUNDS pp pp pp
0.0000000000000000e+00 1.4240600000000001e+01
0.0000000000000000e+00 1.4240600000000001e+01
0.0000000000000000e+00 1.4240600000000001e+01
ITEM: ATOMS id type x y z 
126 2 9.77293 2.89468 14.2073 
ITEM: TIMESTEP
10100
ITEM: NUMBER OF ATOMS
1
ITEM: BOX BOUNDS pp pp pp
0.0000000000000000e+00 1.4240600000000001e+01
0.0000000000000000e+00 1.4240600000000001e+01
0.0000000000000000e+00 1.4240600000000001e+01
ITEM: ATOMS id type x y z 
126 2 9.74011 2.8849 14.2024 
ITEM: TIMESTEP
10200
ITEM: NUMBER OF ATOMS
1
ITEM: BOX BOUNDS pp pp pp
0.0000000000000000e+00 1.4240600000000001e+01
0.0000000000000000e+00 1.4240600000000001e+01
0.0000000000000000e+00 1.4240600000000001e+01
ITEM: ATOMS id type x y z 
126 2 9.73198 2.89658 14.1988 
ITEM: TIMESTEP
10300
ITEM: NUMBER OF ATOMS
1
ITEM: BOX BOUNDS pp pp pp
0.0000000000000000e+00 1.4240600000000001e+01
0.0000000000000000e+00 1.4240600000000001e+01
0.0000000000000000e+00 1.4240600000000001e+01
ITEM: ATOMS id type x y z 
126 2 9.83367 2.5257 13.4933 
ITEM: TIMESTEP
10400
ITEM: NUMBER OF ATOMS
1
ITEM: BOX BOUNDS pp pp pp
0.0000000000000000e+00 1.4240600000000001e+01
0.0000000000000000e+00 1.4240600000000001e+01
0.0000000000000000e+00 1.4240600000000001e+01
ITEM: ATOMS id type x y z 
126 2 9.80826 2.89492 14.2243 
ITEM: TIMESTEP
10500
ITEM: NUMBER OF ATOMS
1
ITEM: BOX BOUNDS pp pp pp
0.0000000000000000e+00 1.4240600000000001e+01
0.0000000000000000e+00 1.4240600000000001e+01
0.0000000000000000e+00 1.4240600000000001e+01
ITEM: ATOMS id type x y z 
126 2 9.74324 2.88358 14.2 
ITEM: TIMESTEP
10600
ITEM: NUMBER OF ATOMS
1
ITEM: BOX BOUNDS pp pp pp
0.0000000000000000e+00 1.4240600000000001e+01
0.0000000000000000e+00 1.4240600000000001e+01
0.0000000000000000e+00 1.4240600000000001e+01
ITEM: ATOMS id type x y z 
126 2 9.72736 2.89757 14.1934 
ITEM: TIMESTEP
10700
ITEM: NUMBER OF ATOMS
1
ITEM: BOX BOUNDS pp pp pp
0.0000000000000000e+00 1.4240600000000001e+01
0.0000000000000000e+00 1.4240600000000001e+01
0.0000000000000000e+00 1.4240600000000001e+01
ITEM: ATOMS id type x y z 
126 2 9.72514 2.89858 14.1953 
ITEM: TIMESTEP
10800
ITEM: NUMBER OF ATOMS
1
ITEM: BOX BOUNDS pp pp pp
0.0000000000000000e+00 1.4240600000000001e+01
0.0000000000000000e+00 1.4240600000000001e+01
0.0000000000000000e+00 1.4240600000000001e+01
ITEM: ATOMS id type x y z 
126 2 9.73877 2.75926 13.8963 
ITEM: TIMESTEP
10900
ITEM: NUMBER OF ATOMS
1
ITEM: BOX BOUNDS pp pp pp
0.0000000000000000e+00 1.4240600000000001e+01
0.0000000000000000e+00 1.4240600000000001e+01
0.0000000000000000e+00 1.4240600000000001e+01
ITEM: ATOMS id type x y z 