# LAMMPS data file written by Ovito Pro 3.0.0-dev682
250 atoms
2 atom types
0.0 14.2406 xlo xhi
0.0 14.2406 ylo yhi
0.0 14.2406 zlo zhi

Masses

1 55.845  # Fe
2 51.996  # Cr

Atoms  # atomic

1 1 0 0 0 
2 1 1.42406 1.42406 1.42406 
3 1 2.84812 0 0 
11 1 0 2.84812 0 
12 1 1.42406 4.27218 1.42406 
13 1 2.84812 2.84812 0 
51 2 0 0 2.84812 
53 1 2.84812 0 2.84812 
61 1 0 2.84812 2.84812 
63 1 2.84812 2.84812 2.84812 
4 1 4.27218 1.42406 1.42406 
5 1 5.69624 0 0 
14 1 4.27218 4.27218 1.42406 
15 1 5.69624 2.84812 0 
55 1 5.69624 0 2.84812 
65 1 5.69624 2.84812 2.84812 
52 1 1.42406 1.42406 4.27218 
62 2 1.42406 4.27218 4.27218 
101 1 0 0 5.69624 
103 2 2.84812 0 5.69624 
111 1 0 2.84812 5.69624 
113 1 2.84812 2.84812 5.69624 
54 1 4.27218 1.42406 4.27218 
64 1 4.27218 4.27218 4.27218 
105 1 5.69624 0 5.69624 
115 1 5.69624 2.84812 5.69624 
102 1 1.42406 1.42406 7.1203 
112 1 1.42406 4.27218 7.1203 
151 1 0 0 8.54436 
152 1 1.42406 1.42406 9.96842 
153 1 2.84812 0 8.54436 
161 1 0 2.84812 8.54436 
162 1 1.42406 4.27218 9.96842 
163 1 2.84812 2.84812 8.54436 
104 1 4.27218 1.42406 7.1203 
114 1 4.27218 4.27218 7.1203 
154 1 4.27218 1.42406 9.96842 
155 1 5.69624 0 8.54436 
164 1 4.27218 4.27218 9.96842 
165 1 5.69624 2.84812 8.54436 
201 1 0 0 11.3925 
202 1 1.42406 1.42406 12.8165 
203 1 2.84812 0 11.3925 
211 1 0 2.84812 11.3925 
212 1 1.42406 4.27218 12.8165 
213 1 2.84812 2.84812 11.3925 
204 1 4.27218 1.42406 12.8165 
205 1 5.69624 0 11.3925 
214 1 4.27218 4.27218 12.8165 
215 1 5.69624 2.84812 11.3925 
21 1 0 5.69624 0 
22 1 1.42406 7.1203 1.42406 
23 1 2.84812 5.69624 0 
31 2 0 8.54436 0 
33 1 2.84812 8.54436 0 
71 1 0 5.69624 2.84812 
73 1 2.84812 5.69624 2.84812 
81 1 0 8.54436 2.84812 
83 1 2.84812 8.54436 2.84812 
24 1 4.27218 7.1203 1.42406 
25 1 5.69624 5.69624 0 
35 1 5.69624 8.54436 0 
75 2 5.69624 5.69624 2.84812 
85 1 5.69624 8.54436 2.84812 
72 1 1.42406 7.1203 4.27218 
121 1 0 5.69624 5.69624 
123 1 2.84812 5.69624 5.69624 
131 1 0 8.54436 5.69624 
133 1 2.84812 8.54436 5.69624 
74 1 4.27218 7.1203 4.27218 
125 1 5.69624 5.69624 5.69624 
135 1 5.69624 8.54436 5.69624 
122 1 1.42406 7.1203 7.1203 
171 2 0 5.69624 8.54436 
172 1 1.42406 7.1203 9.96842 
173 1 2.84812 5.69624 8.54436 
181 1 0 8.54436 8.54436 
183 1 2.84812 8.54436 8.54436 
124 1 4.27218 7.1203 7.1203 
174 1 4.27218 7.1203 9.96842 
175 1 5.69624 5.69624 8.54436 
185 1 5.69624 8.54436 8.54436 
221 1 0 5.69624 11.3925 
222 1 1.42406 7.1203 12.8165 
223 1 2.84812 5.69624 11.3925 
231 1 0 8.54436 11.3925 
233 1 2.84812 8.54436 11.3925 
224 1 4.27218 7.1203 12.8165 
225 1 5.69624 5.69624 11.3925 
235 1 5.69624 8.54436 11.3925 
32 2 1.42406 9.96842 1.42406 
41 1 0 11.3925 0 
42 1 1.42406 12.8165 1.42406 
43 1 2.84812 11.3925 0 
91 2 0 11.3925 2.84812 
93 1 2.84812 11.3925 2.84812 
34 1 4.27218 9.96842 1.42406 
44 1 4.27218 12.8165 1.42406 
45 2 5.69624 11.3925 0 
95 1 5.69624 11.3925 2.84812 
82 1 1.42406 9.96842 4.27218 
92 1 1.42406 12.8165 4.27218 
141 1 0 11.3925 5.69624 
143 1 2.84812 11.3925 5.69624 
84 1 4.27218 9.96842 4.27218 
94 1 4.27218 12.8165 4.27218 
145 1 5.69624 11.3925 5.69624 
132 1 1.42406 9.96842 7.1203 
142 1 1.42406 12.8165 7.1203 
182 1 1.42406 9.96842 9.96842 
191 1 0 11.3925 8.54436 
192 1 1.42406 12.8165 9.96842 
193 1 2.84812 11.3925 8.54436 
134 2 4.27218 9.96842 7.1203 
144 1 4.27218 12.8165 7.1203 
184 1 4.27218 9.96842 9.96842 
194 1 4.27218 12.8165 9.96842 
195 1 5.69624 11.3925 8.54436 
232 1 1.42406 9.96842 12.8165 
241 2 0 11.3925 11.3925 
242 1 1.42406 12.8165 12.8165 
243 1 2.84812 11.3925 11.3925 
234 1 4.27218 9.96842 12.8165 
244 1 4.27218 12.8165 12.8165 
245 1 5.69624 11.3925 11.3925 
6 1 7.1203 1.42406 1.42406 
7 1 8.54436 0 0 
8 1 9.96842 1.42406 1.42406 
16 1 7.1203 4.27218 1.42406 
17 1 8.54436 2.84812 0 
18 1 9.96842 4.27218 1.42406 
57 1 8.54436 0 2.84812 
67 1 8.54436 2.84812 2.84812 
9 1 11.3925 0 0 
10 1 12.8165 1.42406 1.42406 
19 1 11.3925 2.84812 0 
20 1 12.8165 4.27218 1.42406 
59 1 11.3925 0 2.84812 
69 1 11.3925 2.84812 2.84812 
56 1 7.1203 1.42406 4.27218 
58 1 9.96842 1.42406 4.27218 
66 1 7.1203 4.27218 4.27218 
68 1 9.96842 4.27218 4.27218 
107 1 8.54436 0 5.69624 
117 1 8.54436 2.84812 5.69624 
60 1 12.8165 1.42406 4.27218 
70 1 12.8165 4.27218 4.27218 
109 1 11.3925 0 5.69624 
119 1 11.3925 2.84812 5.69624 
106 1 7.1203 1.42406 7.1203 
108 1 9.96842 1.42406 7.1203 
116 1 7.1203 4.27218 7.1203 
118 1 9.96842 4.27218 7.1203 
156 1 7.1203 1.42406 9.96842 
157 1 8.54436 0 8.54436 
158 1 9.96842 1.42406 9.96842 
166 1 7.1203 4.27218 9.96842 
167 1 8.54436 2.84812 8.54436 
168 1 9.96842 4.27218 9.96842 
110 1 12.8165 1.42406 7.1203 
120 2 12.8165 4.27218 7.1203 
159 1 11.3925 0 8.54436 
160 1 12.8165 1.42406 9.96842 
169 2 11.3925 2.84812 8.54436 
170 1 12.8165 4.27218 9.96842 
206 1 7.1203 1.42406 12.8165 
207 2 8.54436 0 11.3925 
208 1 9.96842 1.42406 12.8165 
216 1 7.1203 4.27218 12.8165 
217 1 8.54436 2.84812 11.3925 
218 1 9.96842 4.27218 12.8165 
209 1 11.3925 0 11.3925 
210 2 12.8165 1.42406 12.8165 
219 1 11.3925 2.84812 11.3925 
220 1 12.8165 4.27218 12.8165 
26 1 7.1203 7.1203 1.42406 
27 1 8.54436 5.69624 0 
28 1 9.96842 7.1203 1.42406 
37 1 8.54436 8.54436 0 
77 1 8.54436 5.69624 2.84812 
87 1 8.54436 8.54436 2.84812 
29 1 11.3925 5.69624 0 
30 1 12.8165 7.1203 1.42406 
39 1 11.3925 8.54436 0 
79 2 11.3925 5.69624 2.84812 
89 1 11.3925 8.54436 2.84812 
76 1 7.1203 7.1203 4.27218 
78 1 9.96842 7.1203 4.27218 
127 1 8.54436 5.69624 5.69624 
137 1 8.54436 8.54436 5.69624 
80 1 12.8165 7.1203 4.27218 
129 1 11.3925 5.69624 5.69624 
139 1 11.3925 8.54436 5.69624 
126 2 7.1203 7.1203 7.1203 
128 1 9.96842 7.1203 7.1203 
176 1 7.1203 7.1203 9.96842 
177 1 8.54436 5.69624 8.54436 
178 1 9.96842 7.1203 9.96842 
187 1 8.54436 8.54436 8.54436 
130 1 12.8165 7.1203 7.1203 
179 1 11.3925 5.69624 8.54436 
180 1 12.8165 7.1203 9.96842 
189 1 11.3925 8.54436 8.54436 
226 1 7.1203 7.1203 12.8165 
227 1 8.54436 5.69624 11.3925 
228 1 9.96842 7.1203 12.8165 
237 1 8.54436 8.54436 11.3925 
229 1 11.3925 5.69624 11.3925 
230 2 12.8165 7.1203 12.8165 
239 1 11.3925 8.54436 11.3925 
36 1 7.1203 9.96842 1.42406 
38 1 9.96842 9.96842 1.42406 
46 1 7.1203 12.8165 1.42406 
47 1 8.54436 11.3925 0 
48 1 9.96842 12.8165 1.42406 
97 1 8.54436 11.3925 2.84812 
40 1 12.8165 9.96842 1.42406 
49 1 11.3925 11.3925 0 
50 1 12.8165 12.8165 1.42406 
99 1 11.3925 11.3925 2.84812 
86 1 7.1203 9.96842 4.27218 
88 1 9.96842 9.96842 4.27218 
96 1 7.1203 12.8165 4.27218 
98 1 9.96842 12.8165 4.27218 
147 1 8.54436 11.3925 5.69624 
90 1 12.8165 9.96842 4.27218 
100 1 12.8165 12.8165 4.27218 
149 1 11.3925 11.3925 5.69624 
136 1 7.1203 9.96842 7.1203 
138 1 9.96842 9.96842 7.1203 
146 1 7.1203 12.8165 7.1203 
148 1 9.96842 12.8165 7.1203 
186 1 7.1203 9.96842 9.96842 
188 1 9.96842 9.96842 9.96842 
196 1 7.1203 12.8165 9.96842 
197 1 8.54436 11.3925 8.54436 
198 1 9.96842 12.8165 9.96842 
140 1 12.8165 9.96842 7.1203 
150 1 12.8165 12.8165 7.1203 
190 2 12.8165 9.96842 9.96842 
199 1 11.3925 11.3925 8.54436 
200 1 12.8165 12.8165 9.96842 
236 1 7.1203 9.96842 12.8165 
238 1 9.96842 9.96842 12.8165 
246 1 7.1203 12.8165 12.8165 
247 1 8.54436 11.3925 11.3925 
248 1 9.96842 12.8165 12.8165 
240 1 12.8165 9.96842 12.8165 
249 1 11.3925 11.3925 11.3925 
250 1 12.8165 12.8165 12.8165 