# LAMMPS data file written by Ovito Pro 3.0.0-dev682
1756 atoms
3 atom types
0.0 27.8 xlo xhi
0.0 20.1 ylo yhi
0.0 35.3 zlo zhi

Masses

1 0.0  # Cr
2 0.0  # Fe
3 0.0  # O

Atoms  # atomic

1 1 4.4 2.5 15.8
2 1 2.5 0.0 14.4
3 1 0.2 2.5 15.8
4 1 2.1 0.0 17.3
5 1 9.1 0.0 17.3
6 1 7.2 2.5 15.8
7 1 4.8 0.0 17.3
8 1 6.7 0.0 14.4
9 1 13.7 0.0 14.4
10 1 11.8 0.0 17.3
11 1 9.5 0.0 14.4
12 1 11.4 2.5 15.8
13 3 3.5 19.4 16.0
14 3 1.2 18.6 14.4
15 3 1.2 0.8 15.7
16 3 1.2 0.8 13.1
17 3 3.5 1.5 17.3
18 3 3.5 1.8 14.3
19 3 8.1 19.4 13.1
20 3 5.8 1.0 15.8
21 3 5.8 3.3 17.2
22 3 5.8 3.3 14.5
23 3 8.1 1.5 14.4
24 3 8.1 19.4 15.7
25 3 12.8 1.8 14.5
26 3 10.4 3.5 17.3
27 3 10.4 18.4 14.3
28 3 10.4 0.8 16.0
29 3 12.8 4.0 15.8
30 3 12.8 1.8 17.2
31 1 4.4 0.0 11.5
32 1 2.5 17.6 10.0
33 1 0.2 0.0 11.5
34 1 2.1 17.6 12.9
35 1 9.1 17.6 12.9
36 1 7.2 0.0 11.5
37 1 4.8 17.6 12.9
38 1 6.7 17.6 10.0
39 1 13.7 17.6 10.0
40 1 11.8 17.6 12.9
41 1 9.5 17.6 10.0
42 1 11.4 0.0 11.5
43 3 3.5 16.8 11.6
44 3 1.2 16.1 10.0
45 3 1.2 18.4 11.4
46 3 1.2 18.4 8.7
47 3 3.5 19.1 12.9
48 3 3.5 19.4 9.9
49 3 8.1 16.8 8.7
50 3 5.8 18.6 11.5
51 3 5.8 0.8 12.8
52 3 5.8 0.8 10.2
53 3 8.1 19.1 10.0
54 3 8.1 16.8 11.4
55 3 12.8 19.4 10.2
56 3 10.4 1.0 12.9
57 3 10.4 15.9 9.9
58 3 10.4 18.4 11.6
59 3 12.8 1.5 11.5
60 3 12.8 19.4 12.8
61 1 4.4 17.6 7.1
62 1 2.5 15.1 5.7
63 1 0.2 17.6 7.1
64 1 2.1 15.1 8.6
65 1 9.1 15.1 8.6
66 1 7.2 17.6 7.1
67 1 4.8 15.1 8.6
68 1 6.7 15.1 5.7
69 1 13.7 15.1 5.7
70 1 11.8 15.1 8.6
71 1 9.5 15.1 5.7
72 1 11.4 17.6 7.1
73 3 3.5 14.3 7.3
74 3 1.2 13.6 5.7
75 3 1.2 15.9 7.0
76 3 1.2 15.9 4.4
77 3 3.5 16.6 8.6
78 3 3.5 16.8 5.5
79 3 8.1 14.3 4.4
80 3 5.8 16.1 7.1
81 3 5.8 18.4 8.5
82 3 5.8 18.4 5.8
83 3 8.1 16.6 5.7
84 3 8.1 14.3 7.0
85 3 12.8 16.8 5.8
86 3 10.4 18.6 8.6
87 3 10.4 13.3 5.5
88 3 10.4 15.9 7.3
89 3 12.8 19.1 7.1
90 3 12.8 16.8 8.5
91 1 4.4 15.1 2.8
92 1 2.5 12.6 1.3
93 1 0.2 15.1 2.8
94 1 2.1 12.6 4.2
95 1 9.1 12.6 4.2
96 1 7.2 15.1 2.8
97 1 4.8 12.6 4.2
98 1 6.7 12.6 1.3
99 1 13.7 12.6 1.3
100 1 11.8 12.6 4.2
101 1 9.5 12.6 1.3
102 1 11.4 15.1 2.8
103 3 3.5 11.8 2.9
104 3 1.2 11.1 1.3
105 3 1.2 13.3 2.6
106 3 1.2 13.3 0.0
107 3 3.5 14.1 4.2
108 3 3.5 14.3 1.2
109 3 8.1 11.8 0.0
110 3 5.8 13.6 2.8
111 3 5.8 15.9 4.1
112 3 5.8 15.9 1.5
113 3 8.1 14.1 1.3
114 3 8.1 11.8 2.6
115 3 12.8 14.3 1.5
116 3 10.4 16.1 4.2
117 3 10.4 10.8 1.2
118 3 10.4 13.3 2.9
119 3 12.8 16.6 2.8
120 3 12.8 14.3 4.1
121 1 4.4 7.5 15.8
122 1 2.5 5.0 14.4
123 1 0.2 7.5 15.8
124 1 2.1 5.0 17.3
125 1 9.1 5.0 17.3
126 1 7.2 7.5 15.8
127 1 4.8 5.0 17.3
128 1 6.7 5.0 14.4
129 1 13.7 5.0 14.4
130 1 11.8 5.0 17.3
131 1 9.5 5.0 14.4
132 1 11.4 7.5 15.8
133 3 3.5 4.3 16.0
134 3 1.2 3.5 14.4
135 3 1.2 5.8 15.7
136 3 1.2 5.8 13.1
137 3 3.5 6.6 17.3
138 3 3.5 6.8 14.3
139 3 8.1 4.3 13.1
140 3 5.8 6.0 15.8
141 3 5.8 8.3 17.2
142 3 5.8 8.3 14.5
143 3 8.1 6.6 14.4
144 3 8.1 4.3 15.7
145 3 12.8 6.8 14.5
146 3 10.4 8.5 17.3
147 3 10.4 3.3 14.3
148 3 10.4 5.8 16.0
149 3 12.8 9.1 15.8
150 3 12.8 6.8 17.2
151 1 4.4 5.0 11.5
152 1 2.5 2.5 10.0
153 1 0.2 5.0 11.5
154 1 2.1 2.5 12.9
155 1 9.1 2.5 12.9
156 1 7.2 5.0 11.5
157 1 4.8 2.5 12.9
158 1 6.7 2.5 10.0
159 1 13.7 2.5 10.0
160 1 11.8 2.5 12.9
161 1 9.5 2.5 10.0
162 1 11.4 5.0 11.5
163 3 3.5 1.8 11.6
164 3 1.2 1.0 10.0
165 3 1.2 3.3 11.4
166 3 1.2 3.3 8.7
167 3 3.5 4.0 12.9
168 3 3.5 4.3 9.9
169 3 8.1 1.8 8.7
170 3 5.8 3.5 11.5
171 3 5.8 5.8 12.8
172 3 5.8 5.8 10.2
173 3 8.1 4.0 10.0
174 3 8.1 1.8 11.4
175 3 12.8 4.3 10.2
176 3 10.4 6.0 12.9
177 3 10.4 0.8 9.9
178 3 10.4 3.3 11.6
179 3 12.8 6.6 11.5
180 3 12.8 4.3 12.8
181 1 4.4 2.5 7.1
182 1 2.5 0.0 5.7
183 1 0.2 2.5 7.1
184 1 2.1 0.0 8.6
185 1 9.1 0.0 8.6
186 1 7.2 2.5 7.1
187 1 4.8 0.0 8.6
188 1 6.7 0.0 5.7
189 1 13.7 0.0 5.7
190 1 11.8 0.0 8.6
191 1 9.5 0.0 5.7
192 1 11.4 2.5 7.1
193 3 3.5 19.4 7.3
194 3 1.2 18.6 5.7
195 3 1.2 0.8 7.0
196 3 1.2 0.8 4.4
197 3 3.5 1.5 8.6
198 3 3.5 1.8 5.5
199 3 8.1 19.4 4.4
200 3 5.8 1.0 7.1
201 3 5.8 3.3 8.5
202 3 5.8 3.3 5.8
203 3 8.1 1.5 5.7
204 3 8.1 19.4 7.0
205 3 12.8 1.8 5.8
206 3 10.4 3.5 8.6
207 3 10.4 18.4 5.5
208 3 10.4 0.8 7.3
209 3 12.8 4.0 7.1
210 3 12.8 1.8 8.5
211 1 4.4 0.0 2.8
212 1 2.5 17.6 1.3
213 1 0.2 0.0 2.8
214 1 2.1 17.6 4.2
215 1 9.1 17.6 4.2
216 1 7.2 0.0 2.8
217 1 4.8 17.6 4.2
218 1 6.7 17.6 1.3
219 1 13.7 17.6 1.3
220 1 11.8 17.6 4.2
221 1 9.5 17.6 1.3
222 1 11.4 0.0 2.8
223 3 3.5 16.8 2.9
224 3 1.2 16.1 1.3
225 3 1.2 18.4 2.6
226 3 1.2 18.4 0.0
227 3 3.5 19.1 4.2
228 3 3.5 19.4 1.2
229 3 8.1 16.8 0.0
230 3 5.8 18.6 2.8
231 3 5.8 0.8 4.1
232 3 5.8 0.8 1.5
233 3 8.1 19.1 1.3
234 3 8.1 16.8 2.6
235 3 12.8 19.4 1.5
236 3 10.4 1.0 4.2
237 3 10.4 15.9 1.2
238 3 10.4 18.4 2.9
239 3 12.8 1.5 2.8
240 3 12.8 19.4 4.1
241 1 4.4 12.6 15.8
242 1 2.5 10.1 14.4
243 1 0.2 12.6 15.8
244 1 2.1 10.1 17.3
245 1 9.1 10.1 17.3
246 1 7.2 12.6 15.8
247 1 4.8 10.1 17.3
248 1 6.7 10.1 14.4
249 1 13.7 10.1 14.4
250 1 11.8 10.1 17.3
251 1 9.5 10.1 14.4
252 1 11.4 12.6 15.8
253 3 3.5 9.3 16.0
254 3 1.2 8.5 14.4
255 3 1.2 10.8 15.7
256 3 1.2 10.8 13.1
257 3 3.5 11.6 17.3
258 3 3.5 11.8 14.3
259 3 8.1 9.3 13.1
260 3 5.8 11.1 15.8
261 3 5.8 13.3 17.2
262 3 5.8 13.3 14.5
263 3 8.1 11.6 14.4
264 3 8.1 9.3 15.7
265 3 12.8 11.8 14.5
266 3 10.4 13.6 17.3
267 3 10.4 8.3 14.3
268 3 10.4 10.8 16.0
269 3 12.8 14.1 15.8
270 3 12.8 11.8 17.2
271 1 4.4 10.1 11.5
272 1 2.5 7.5 10.0
273 1 0.2 10.1 11.5
274 1 2.1 7.5 12.9
275 1 9.1 7.5 12.9
276 1 7.2 10.1 11.5
277 1 4.8 7.5 12.9
278 1 6.7 7.5 10.0
279 1 13.7 7.5 10.0
280 1 11.8 7.5 12.9
281 1 9.5 7.5 10.0
282 1 11.4 10.1 11.5
283 3 3.5 6.8 11.6
284 3 1.2 6.0 10.0
285 3 1.2 8.3 11.4
286 3 1.2 8.3 8.7
287 3 3.5 9.1 12.9
288 3 3.5 9.3 9.9
289 3 8.1 6.8 8.7
290 3 5.8 8.5 11.5
291 3 5.8 10.8 12.8
292 3 5.8 10.8 10.2
293 3 8.1 9.1 10.0
294 3 8.1 6.8 11.4
295 3 12.8 9.3 10.2
296 3 10.4 11.1 12.9
297 3 10.4 5.8 9.9
298 3 10.4 8.3 11.6
299 3 12.8 11.6 11.5
300 3 12.8 9.3 12.8
301 1 4.4 7.5 7.1
302 1 2.5 5.0 5.7
303 1 0.2 7.5 7.1
304 1 2.1 5.0 8.6
305 1 9.1 5.0 8.6
306 1 7.2 7.5 7.1
307 1 4.8 5.0 8.6
308 1 6.7 5.0 5.7
309 1 13.7 5.0 5.7
310 1 11.8 5.0 8.6
311 1 9.5 5.0 5.7
312 1 11.4 7.5 7.1
313 3 3.5 4.3 7.3
314 3 1.2 3.5 5.7
315 3 1.2 5.8 7.0
316 3 1.2 5.8 4.4
317 3 3.5 6.6 8.6
318 3 3.5 6.8 5.5
319 3 8.1 4.3 4.4
320 3 5.8 6.0 7.1
321 3 5.8 8.3 8.5
322 3 5.8 8.3 5.8
323 3 8.1 6.6 5.7
324 3 8.1 4.3 7.0
325 3 12.8 6.8 5.8
326 3 10.4 8.5 8.6
327 3 10.4 3.3 5.5
328 3 10.4 5.8 7.3
329 3 12.8 9.1 7.1
330 3 12.8 6.8 8.5
331 1 4.4 5.0 2.8
332 1 2.5 2.5 1.3
333 1 0.2 5.0 2.8
334 1 2.1 2.5 4.2
335 1 9.1 2.5 4.2
336 1 7.2 5.0 2.8
337 1 4.8 2.5 4.2
338 1 6.7 2.5 1.3
339 1 13.7 2.5 1.3
340 1 11.8 2.5 4.2
341 1 9.5 2.5 1.3
342 1 11.4 5.0 2.8
343 3 3.5 1.8 2.9
344 3 1.2 1.0 1.3
345 3 1.2 3.3 2.6
346 3 1.2 3.3 0.0
347 3 3.5 4.0 4.2
348 3 3.5 4.3 1.2
349 3 8.1 1.8 0.0
350 3 5.8 3.5 2.8
351 3 5.8 5.8 4.1
352 3 5.8 5.8 1.5
353 3 8.1 4.0 1.3
354 3 8.1 1.8 2.6
355 3 12.8 4.3 1.5
356 3 10.4 6.0 4.2
357 3 10.4 0.8 1.2
358 3 10.4 3.3 2.9
359 3 12.8 6.6 2.8
360 3 12.8 4.3 4.1
361 1 4.4 17.6 15.8
362 1 2.5 15.1 14.4
363 1 0.2 17.6 15.8
364 1 2.1 15.1 17.3
365 1 9.1 15.1 17.3
366 1 7.2 17.6 15.8
367 1 4.8 15.1 17.3
368 1 6.7 15.1 14.4
369 1 13.7 15.1 14.4
370 1 11.8 15.1 17.3
371 1 9.5 15.1 14.4
372 1 11.4 17.6 15.8
373 3 3.5 14.3 16.0
374 3 1.2 13.6 14.4
375 3 1.2 15.9 15.7
376 3 1.2 15.9 13.1
377 3 3.5 16.6 17.3
378 3 3.5 16.8 14.3
379 3 8.1 14.3 13.1
380 3 5.8 16.1 15.8
381 3 5.8 18.4 17.2
382 3 5.8 18.4 14.5
383 3 8.1 16.6 14.4
384 3 8.1 14.3 15.7
385 3 12.8 16.8 14.5
386 3 10.4 18.6 17.3
387 3 10.4 13.3 14.3
388 3 10.4 15.9 16.0
389 3 12.8 19.1 15.8
390 3 12.8 16.8 17.2
391 1 4.4 15.1 11.5
392 1 2.5 12.6 10.0
393 1 0.2 15.1 11.5
394 1 2.1 12.6 12.9
395 1 9.1 12.6 12.9
396 1 7.2 15.1 11.5
397 1 4.8 12.6 12.9
398 1 6.7 12.6 10.0
399 1 13.7 12.6 10.0
400 1 11.8 12.6 12.9
401 1 9.5 12.6 10.0
402 1 11.4 15.1 11.5
403 3 3.5 11.8 11.6
404 3 1.2 11.1 10.0
405 3 1.2 13.3 11.4
406 3 1.2 13.3 8.7
407 3 3.5 14.1 12.9
408 3 3.5 14.3 9.9
409 3 8.1 11.8 8.7
410 3 5.8 13.6 11.5
411 3 5.8 15.9 12.8
412 3 5.8 15.9 10.2
413 3 8.1 14.1 10.0
414 3 8.1 11.8 11.4
415 3 12.8 14.3 10.2
416 3 10.4 16.1 12.9
417 3 10.4 10.8 9.9
418 3 10.4 13.3 11.6
419 3 12.8 16.6 11.5
420 3 12.8 14.3 12.8
421 1 4.4 12.6 7.1
422 1 2.5 10.1 5.7
423 1 0.2 12.6 7.1
424 1 2.1 10.1 8.6
425 1 9.1 10.1 8.6
426 1 7.2 12.6 7.1
427 1 4.8 10.1 8.6
428 1 6.7 10.1 5.7
429 1 13.7 10.1 5.7
430 1 11.8 10.1 8.6
431 1 9.5 10.1 5.7
432 1 11.4 12.6 7.1
433 3 3.5 9.3 7.3
434 3 1.2 8.5 5.7
435 3 1.2 10.8 7.0
436 3 1.2 10.8 4.4
437 3 3.5 11.6 8.6
438 3 3.5 11.8 5.5
439 3 8.1 9.3 4.4
440 3 5.8 11.1 7.1
441 3 5.8 13.3 8.5
442 3 5.8 13.3 5.8
443 3 8.1 11.6 5.7
444 3 8.1 9.3 7.0
445 3 12.8 11.8 5.8
446 3 10.4 13.6 8.6
447 3 10.4 8.3 5.5
448 3 10.4 10.8 7.3
449 3 12.8 14.1 7.1
450 3 12.8 11.8 8.5
451 1 4.4 10.1 2.8
452 1 2.5 7.5 1.3
453 1 0.2 10.1 2.8
454 1 2.1 7.5 4.2
455 1 9.1 7.5 4.2
456 1 7.2 10.1 2.8
457 1 4.8 7.5 4.2
458 1 6.7 7.5 1.3
459 1 13.7 7.5 1.3
460 1 11.8 7.5 4.2
461 1 9.5 7.5 1.3
462 1 11.4 10.1 2.8
463 3 3.5 6.8 2.9
464 3 1.2 6.0 1.3
465 3 1.2 8.3 2.6
466 3 1.2 8.3 0.0
467 3 3.5 9.1 4.2
468 3 3.5 9.3 1.2
469 3 8.1 6.8 0.0
470 3 5.8 8.5 2.8
471 3 5.8 10.8 4.1
472 3 5.8 10.8 1.5
473 3 8.1 9.1 1.3
474 3 8.1 6.8 2.6
475 3 12.8 9.3 1.5
476 3 10.4 11.1 4.2
477 3 10.4 5.8 1.2
478 3 10.4 8.3 2.9
479 3 12.8 11.6 2.8
480 3 12.8 9.3 4.1
481 1 18.3 2.5 15.8
482 1 16.4 0.0 14.4
483 1 14.1 2.5 15.8
484 1 16.0 0.0 17.3
485 1 23.0 0.0 17.3
486 1 21.1 2.5 15.8
487 1 18.8 0.0 17.3
488 1 20.7 0.0 14.4
489 1 27.6 0.0 14.4
490 1 25.7 0.0 17.3
491 1 23.4 0.0 14.4
492 1 25.3 2.5 15.8
493 3 17.4 19.4 16.0
494 3 15.1 18.6 14.4
495 3 15.1 0.8 15.7
496 3 15.1 0.8 13.1
497 3 17.4 1.5 17.3
498 3 17.4 1.8 14.3
499 3 22.0 19.4 13.1
500 3 19.7 1.0 15.8
501 3 19.7 3.3 17.2
502 3 19.7 3.3 14.5
503 3 22.0 1.5 14.4
504 3 22.0 19.4 15.7
505 3 26.7 1.8 14.5
506 3 24.3 3.5 17.3
507 3 24.3 18.4 14.3
508 3 24.3 0.8 16.0
509 3 26.7 4.0 15.8
510 3 26.7 1.8 17.2
511 1 18.3 0.0 11.5
512 1 16.4 17.6 10.0
513 1 14.1 0.0 11.5
514 1 16.0 17.6 12.9
515 1 23.0 17.6 12.9
516 1 21.1 0.0 11.5
517 1 18.8 17.6 12.9
518 1 20.7 17.6 10.0
519 1 27.6 17.6 10.0
520 1 25.7 17.6 12.9
521 1 23.4 17.6 10.0
522 1 25.3 0.0 11.5
523 3 17.4 16.8 11.6
524 3 15.1 16.1 10.0
525 3 15.1 18.4 11.4
526 3 15.1 18.4 8.7
527 3 17.4 19.1 12.9
528 3 17.4 19.4 9.9
529 3 22.0 16.8 8.7
530 3 19.7 18.6 11.5
531 3 19.7 0.8 12.8
532 3 19.7 0.8 10.2
533 3 22.0 19.1 10.0
534 3 22.0 16.8 11.4
535 3 26.7 19.4 10.2
536 3 24.3 1.0 12.9
537 3 24.3 15.9 9.9
538 3 24.3 18.4 11.6
539 3 26.7 1.5 11.5
540 3 26.7 19.4 12.8
541 1 18.3 17.6 7.1
542 1 16.4 15.1 5.7
543 1 14.1 17.6 7.1
544 1 16.0 15.1 8.6
545 1 23.0 15.1 8.6
546 1 21.1 17.6 7.1
547 1 18.8 15.1 8.6
548 1 20.7 15.1 5.7
549 1 27.6 15.1 5.7
550 1 25.7 15.1 8.6
551 1 23.4 15.1 5.7
552 1 25.3 17.6 7.1
553 3 17.4 14.3 7.3
554 3 15.1 13.6 5.7
555 3 15.1 15.9 7.0
556 3 15.1 15.9 4.4
557 3 17.4 16.6 8.6
558 3 17.4 16.8 5.5
559 3 22.0 14.3 4.4
560 3 19.7 16.1 7.1
561 3 19.7 18.4 8.5
562 3 19.7 18.4 5.8
563 3 22.0 16.6 5.7
564 3 22.0 14.3 7.0
565 3 26.7 16.8 5.8
566 3 24.3 18.6 8.6
567 3 24.3 13.3 5.5
568 3 24.3 15.9 7.3
569 3 26.7 19.1 7.1
570 3 26.7 16.8 8.5
571 1 18.3 15.1 2.8
572 1 16.4 12.6 1.3
573 1 14.1 15.1 2.8
574 1 16.0 12.6 4.2
575 1 23.0 12.6 4.2
576 1 21.1 15.1 2.8
577 1 18.8 12.6 4.2
578 1 20.7 12.6 1.3
579 1 27.6 12.6 1.3
580 1 25.7 12.6 4.2
581 1 23.4 12.6 1.3
582 1 25.3 15.1 2.8
583 3 17.4 11.8 2.9
584 3 15.1 11.1 1.3
585 3 15.1 13.3 2.6
586 3 15.1 13.3 0.0
587 3 17.4 14.1 4.2
588 3 17.4 14.3 1.2
589 3 22.0 11.8 0.0
590 3 19.7 13.6 2.8
591 3 19.7 15.9 4.1
592 3 19.7 15.9 1.5
593 3 22.0 14.1 1.3
594 3 22.0 11.8 2.6
595 3 26.7 14.3 1.5
596 3 24.3 16.1 4.2
597 3 24.3 10.8 1.2
598 3 24.3 13.3 2.9
599 3 26.7 16.6 2.8
600 3 26.7 14.3 4.1
601 1 18.3 7.5 15.8
602 1 16.4 5.0 14.4
603 1 14.1 7.5 15.8
604 1 16.0 5.0 17.3
605 1 23.0 5.0 17.3
606 1 21.1 7.5 15.8
607 1 18.8 5.0 17.3
608 1 20.7 5.0 14.4
609 1 27.6 5.0 14.4
610 1 25.7 5.0 17.3
611 1 23.4 5.0 14.4
612 1 25.3 7.5 15.8
613 3 17.4 4.3 16.0
614 3 15.1 3.5 14.4
615 3 15.1 5.8 15.7
616 3 15.1 5.8 13.1
617 3 17.4 6.6 17.3
618 3 17.4 6.8 14.3
619 3 22.0 4.3 13.1
620 3 19.7 6.0 15.8
621 3 19.7 8.3 17.2
622 3 19.7 8.3 14.5
623 3 22.0 6.6 14.4
624 3 22.0 4.3 15.7
625 3 26.7 6.8 14.5
626 3 24.3 8.5 17.3
627 3 24.3 3.3 14.3
628 3 24.3 5.8 16.0
629 3 26.7 9.1 15.8
630 3 26.7 6.8 17.2
631 1 18.3 5.0 11.5
632 1 16.4 2.5 10.0
633 1 14.1 5.0 11.5
634 1 16.0 2.5 12.9
635 1 23.0 2.5 12.9
636 1 21.1 5.0 11.5
637 1 18.8 2.5 12.9
638 1 20.7 2.5 10.0
639 1 27.6 2.5 10.0
640 1 25.7 2.5 12.9
641 1 23.4 2.5 10.0
642 1 25.3 5.0 11.5
643 3 17.4 1.8 11.6
644 3 15.1 1.0 10.0
645 3 15.1 3.3 11.4
646 3 15.1 3.3 8.7
647 3 17.4 4.0 12.9
648 3 17.4 4.3 9.9
649 3 22.0 1.8 8.7
650 3 19.7 3.5 11.5
651 3 19.7 5.8 12.8
652 3 19.7 5.8 10.2
653 3 22.0 4.0 10.0
654 3 22.0 1.8 11.4
655 3 26.7 4.3 10.2
656 3 24.3 6.0 12.9
657 3 24.3 0.8 9.9
658 3 24.3 3.3 11.6
659 3 26.7 6.6 11.5
660 3 26.7 4.3 12.8
661 1 18.3 2.5 7.1
662 1 16.4 0.0 5.7
663 1 14.1 2.5 7.1
664 1 16.0 0.0 8.6
665 1 23.0 0.0 8.6
666 1 21.1 2.5 7.1
667 1 18.8 0.0 8.6
668 1 20.7 0.0 5.7
669 1 27.6 0.0 5.7
670 1 25.7 0.0 8.6
671 1 23.4 0.0 5.7
672 1 25.3 2.5 7.1
673 3 17.4 19.4 7.3
674 3 15.1 18.6 5.7
675 3 15.1 0.8 7.0
676 3 15.1 0.8 4.4
677 3 17.4 1.5 8.6
678 3 17.4 1.8 5.5
679 3 22.0 19.4 4.4
680 3 19.7 1.0 7.1
681 3 19.7 3.3 8.5
682 3 19.7 3.3 5.8
683 3 22.0 1.5 5.7
684 3 22.0 19.4 7.0
685 3 26.7 1.8 5.8
686 3 24.3 3.5 8.6
687 3 24.3 18.4 5.5
688 3 24.3 0.8 7.3
689 3 26.7 4.0 7.1
690 3 26.7 1.8 8.5
691 1 18.3 0.0 2.8
692 1 16.4 17.6 1.3
693 1 14.1 0.0 2.8
694 1 16.0 17.6 4.2
695 1 23.0 17.6 4.2
696 1 21.1 0.0 2.8
697 1 18.8 17.6 4.2
698 1 20.7 17.6 1.3
699 1 27.6 17.6 1.3
700 1 25.7 17.6 4.2
701 1 23.4 17.6 1.3
702 1 25.3 0.0 2.8
703 3 17.4 16.8 2.9
704 3 15.1 16.1 1.3
705 3 15.1 18.4 2.6
706 3 15.1 18.4 0.0
707 3 17.4 19.1 4.2
708 3 17.4 19.4 1.2
709 3 22.0 16.8 0.0
710 3 19.7 18.6 2.8
711 3 19.7 0.8 4.1
712 3 19.7 0.8 1.5
713 3 22.0 19.1 1.3
714 3 22.0 16.8 2.6
715 3 26.7 19.4 1.5
716 3 24.3 1.0 4.2
717 3 24.3 15.9 1.2
718 3 24.3 18.4 2.9
719 3 26.7 1.5 2.8
720 3 26.7 19.4 4.1
721 1 18.3 12.6 15.8
722 1 16.4 10.1 14.4
723 1 14.1 12.6 15.8
724 1 16.0 10.1 17.3
725 1 23.0 10.1 17.3
726 1 21.1 12.6 15.8
727 1 18.8 10.1 17.3
728 1 20.7 10.1 14.4
729 1 27.6 10.1 14.4
730 1 25.7 10.1 17.3
731 1 23.4 10.1 14.4
732 1 25.3 12.6 15.8
733 3 17.4 9.3 16.0
734 3 15.1 8.5 14.4
735 3 15.1 10.8 15.7
736 3 15.1 10.8 13.1
737 3 17.4 11.6 17.3
738 3 17.4 11.8 14.3
739 3 22.0 9.3 13.1
740 3 19.7 11.1 15.8
741 3 19.7 13.3 17.2
742 3 19.7 13.3 14.5
743 3 22.0 11.6 14.4
744 3 22.0 9.3 15.7
745 3 26.7 11.8 14.5
746 3 24.3 13.6 17.3
747 3 24.3 8.3 14.3
748 3 24.3 10.8 16.0
749 3 26.7 14.1 15.8
750 3 26.7 11.8 17.2
751 1 18.3 10.1 11.5
752 1 16.4 7.5 10.0
753 1 14.1 10.1 11.5
754 1 16.0 7.5 12.9
755 1 23.0 7.5 12.9
756 1 21.1 10.1 11.5
757 1 18.8 7.5 12.9
758 1 20.7 7.5 10.0
759 1 27.6 7.5 10.0
760 1 25.7 7.5 12.9
761 1 23.4 7.5 10.0
762 1 25.3 10.1 11.5
763 3 17.4 6.8 11.6
764 3 15.1 6.0 10.0
765 3 15.1 8.3 11.4
766 3 15.1 8.3 8.7
767 3 17.4 9.1 12.9
768 3 17.4 9.3 9.9
769 3 22.0 6.8 8.7
770 3 19.7 8.5 11.5
771 3 19.7 10.8 12.8
772 3 19.7 10.8 10.2
773 3 22.0 9.1 10.0
774 3 22.0 6.8 11.4
775 3 26.7 9.3 10.2
776 3 24.3 11.1 12.9
777 3 24.3 5.8 9.9
778 3 24.3 8.3 11.6
779 3 26.7 11.6 11.5
780 3 26.7 9.3 12.8
781 1 18.3 7.5 7.1
782 1 16.4 5.0 5.7
783 1 14.1 7.5 7.1
784 1 16.0 5.0 8.6
785 1 23.0 5.0 8.6
786 1 21.1 7.5 7.1
787 1 18.8 5.0 8.6
788 1 20.7 5.0 5.7
789 1 27.6 5.0 5.7
790 1 25.7 5.0 8.6
791 1 23.4 5.0 5.7
792 1 25.3 7.5 7.1
793 3 17.4 4.3 7.3
794 3 15.1 3.5 5.7
795 3 15.1 5.8 7.0
796 3 15.1 5.8 4.4
797 3 17.4 6.6 8.6
798 3 17.4 6.8 5.5
799 3 22.0 4.3 4.4
800 3 19.7 6.0 7.1
801 3 19.7 8.3 8.5
802 3 19.7 8.3 5.8
803 3 22.0 6.6 5.7
804 3 22.0 4.3 7.0
805 3 26.7 6.8 5.8
806 3 24.3 8.5 8.6
807 3 24.3 3.3 5.5
808 3 24.3 5.8 7.3
809 3 26.7 9.1 7.1
810 3 26.7 6.8 8.5
811 1 18.3 5.0 2.8
812 1 16.4 2.5 1.3
813 1 14.1 5.0 2.8
814 1 16.0 2.5 4.2
815 1 23.0 2.5 4.2
816 1 21.1 5.0 2.8
817 1 18.8 2.5 4.2
818 1 20.7 2.5 1.3
819 1 27.6 2.5 1.3
820 1 25.7 2.5 4.2
821 1 23.4 2.5 1.3
822 1 25.3 5.0 2.8
823 3 17.4 1.8 2.9
824 3 15.1 1.0 1.3
825 3 15.1 3.3 2.6
826 3 15.1 3.3 0.0
827 3 17.4 4.0 4.2
828 3 17.4 4.3 1.2
829 3 22.0 1.8 0.0
830 3 19.7 3.5 2.8
831 3 19.7 5.8 4.1
832 3 19.7 5.8 1.5
833 3 22.0 4.0 1.3
834 3 22.0 1.8 2.6
835 3 26.7 4.3 1.5
836 3 24.3 6.0 4.2
837 3 24.3 0.8 1.2
838 3 24.3 3.3 2.9
839 3 26.7 6.6 2.8
840 3 26.7 4.3 4.1
841 1 18.3 17.6 15.8
842 1 16.4 15.1 14.4
843 1 14.1 17.6 15.8
844 1 16.0 15.1 17.3
845 1 23.0 15.1 17.3
846 1 21.1 17.6 15.8
847 1 18.8 15.1 17.3
848 1 20.7 15.1 14.4
849 1 27.6 15.1 14.4
850 1 25.7 15.1 17.3
851 1 23.4 15.1 14.4
852 1 25.3 17.6 15.8
853 3 17.4 14.3 16.0
854 3 15.1 13.6 14.4
855 3 15.1 15.9 15.7
856 3 15.1 15.9 13.1
857 3 17.4 16.6 17.3
858 3 17.4 16.8 14.3
859 3 22.0 14.3 13.1
860 3 19.7 16.1 15.8
861 3 19.7 18.4 17.2
862 3 19.7 18.4 14.5
863 3 22.0 16.6 14.4
864 3 22.0 14.3 15.7
865 3 26.7 16.8 14.5
866 3 24.3 18.6 17.3
867 3 24.3 13.3 14.3
868 3 24.3 15.9 16.0
869 3 26.7 19.1 15.8
870 3 26.7 16.8 17.2
871 1 18.3 15.1 11.5
872 1 16.4 12.6 10.0
873 1 14.1 15.1 11.5
874 1 16.0 12.6 12.9
875 1 23.0 12.6 12.9
876 1 21.1 15.1 11.5
877 1 18.8 12.6 12.9
878 1 20.7 12.6 10.0
879 1 27.6 12.6 10.0
880 1 25.7 12.6 12.9
881 1 23.4 12.6 10.0
882 1 25.3 15.1 11.5
883 3 17.4 11.8 11.6
884 3 15.1 11.1 10.0
885 3 15.1 13.3 11.4
886 3 15.1 13.3 8.7
887 3 17.4 14.1 12.9
888 3 17.4 14.3 9.9
889 3 22.0 11.8 8.7
890 3 19.7 13.6 11.5
891 3 19.7 15.9 12.8
892 3 19.7 15.9 10.2
893 3 22.0 14.1 10.0
894 3 22.0 11.8 11.4
895 3 26.7 14.3 10.2
896 3 24.3 16.1 12.9
897 3 24.3 10.8 9.9
898 3 24.3 13.3 11.6
899 3 26.7 16.6 11.5
900 3 26.7 14.3 12.8
901 1 18.3 12.6 7.1
902 1 16.4 10.1 5.7
903 1 14.1 12.6 7.1
904 1 16.0 10.1 8.6
905 1 23.0 10.1 8.6
906 1 21.1 12.6 7.1
907 1 18.8 10.1 8.6
908 1 20.7 10.1 5.7
909 1 27.6 10.1 5.7
910 1 25.7 10.1 8.6
911 1 23.4 10.1 5.7
912 1 25.3 12.6 7.1
913 3 17.4 9.3 7.3
914 3 15.1 8.5 5.7
915 3 15.1 10.8 7.0
916 3 15.1 10.8 4.4
917 3 17.4 11.6 8.6
918 3 17.4 11.8 5.5
919 3 22.0 9.3 4.4
920 3 19.7 11.1 7.1
921 3 19.7 13.3 8.5
922 3 19.7 13.3 5.8
923 3 22.0 11.6 5.7
924 3 22.0 9.3 7.0
925 3 26.7 11.8 5.8
926 3 24.3 13.6 8.6
927 3 24.3 8.3 5.5
928 3 24.3 10.8 7.3
929 3 26.7 14.1 7.1
930 3 26.7 11.8 8.5
931 1 18.3 10.1 2.8
932 1 16.4 7.5 1.3
933 1 14.1 10.1 2.8
934 1 16.0 7.5 4.2
935 1 23.0 7.5 4.2
936 1 21.1 10.1 2.8
937 1 18.8 7.5 4.2
938 1 20.7 7.5 1.3
939 1 27.6 7.5 1.3
940 1 25.7 7.5 4.2
941 1 23.4 7.5 1.3
942 1 25.3 10.1 2.8
943 3 17.4 6.8 2.9
944 3 15.1 6.0 1.3
945 3 15.1 8.3 2.6
946 3 15.1 8.3 0.0
947 3 17.4 9.1 4.2
948 3 17.4 9.3 1.2
949 3 22.0 6.8 0.0
950 3 19.7 8.5 2.8
951 3 19.7 10.8 4.1
952 3 19.7 10.8 1.5
953 3 22.0 9.1 1.3
954 3 22.0 6.8 2.6
955 3 26.7 9.3 1.5
956 3 24.3 11.1 4.2
957 3 24.3 5.8 1.2
958 3 24.3 8.3 2.9
959 3 26.7 11.6 2.8
960 3 26.7 9.3 4.1
961 2 4.3 0.5 19.9
962 2 7.1 0.5 19.9
963 2 10.0 0.5 19.9
964 2 12.8 0.5 19.9
965 2 1.4 3.3 19.9
966 2 2.9 1.9 18.5
967 2 4.3 3.3 19.9
968 2 5.7 1.9 18.5
969 2 7.1 3.3 19.9
970 2 8.6 1.9 18.5
971 2 10.0 3.3 19.9
972 2 11.4 1.9 18.5
973 2 12.8 3.3 19.9
974 2 1.4 6.2 19.9
975 2 2.9 4.8 18.5
976 2 4.3 6.2 19.9
977 2 5.7 4.8 18.5
978 2 7.1 6.2 19.9
979 2 8.6 4.8 18.5
980 2 10.0 6.2 19.9
981 2 11.4 4.8 18.5
982 2 12.8 6.2 19.9
983 2 1.4 9.0 19.9
984 2 2.9 7.6 18.5
985 2 4.3 9.0 19.9
986 2 5.7 7.6 18.5
987 2 7.1 9.0 19.9
988 2 8.6 7.6 18.5
989 2 10.0 9.0 19.9
990 2 11.4 7.6 18.5
991 2 12.8 9.0 19.9
992 2 1.4 11.9 19.9
993 2 2.9 10.5 18.5
994 2 4.3 11.9 19.9
995 2 5.7 10.5 18.5
996 2 7.1 11.9 19.9
997 2 8.6 10.5 18.5
998 2 10.0 11.9 19.9
999 2 11.4 10.5 18.5
1000 2 12.8 11.9 19.9
1001 2 1.4 14.7 19.9
1002 2 2.9 13.3 18.5
1003 2 4.3 14.7 19.9
1004 2 5.7 13.3 18.5
1005 2 7.1 14.7 19.9
1006 2 8.6 13.3 18.5
1007 2 10.0 14.7 19.9
1008 2 11.4 13.3 18.5
1009 2 12.8 14.7 19.9
1010 2 4.3 0.5 22.7
1011 2 7.1 0.5 22.7
1012 2 10.0 0.5 22.7
1013 2 12.8 0.5 22.7
1014 2 1.4 3.3 22.7
1015 2 2.9 1.9 21.3
1016 2 4.3 3.3 22.7
1017 2 5.7 1.9 21.3
1018 2 7.1 3.3 22.7
1019 2 8.6 1.9 21.3
1020 2 10.0 3.3 22.7
1021 2 11.4 1.9 21.3
1022 2 12.8 3.3 22.7
1023 2 1.4 6.2 22.7
1024 2 2.9 4.8 21.3
1025 2 4.3 6.2 22.7
1026 2 5.7 4.8 21.3
1027 2 7.1 6.2 22.7
1028 2 8.6 4.8 21.3
1029 2 10.0 6.2 22.7
1030 2 11.4 4.8 21.3
1031 2 12.8 6.2 22.7
1032 2 1.4 9.0 22.7
1033 2 2.9 7.6 21.3
1034 2 4.3 9.0 22.7
1035 2 5.7 7.6 21.3
1036 2 7.1 9.0 22.7
1037 2 8.6 7.6 21.3
1038 2 10.0 9.0 22.7
1039 2 11.4 7.6 21.3
1040 2 12.8 9.0 22.7
1041 2 1.4 11.9 22.7
1042 2 2.9 10.5 21.3
1043 2 4.3 11.9 22.7
1044 2 5.7 10.5 21.3
1045 2 7.1 11.9 22.7
1046 2 8.6 10.5 21.3
1047 2 10.0 11.9 22.7
1048 2 11.4 10.5 21.3
1049 2 12.8 11.9 22.7
1050 2 1.4 14.7 22.7
1051 2 2.9 13.3 21.3
1052 2 4.3 14.7 22.7
1053 2 5.7 13.3 21.3
1054 2 7.1 14.7 22.7
1055 2 8.6 13.3 21.3
1056 2 10.0 14.7 22.7
1057 2 11.4 13.3 21.3
1058 2 12.8 14.7 22.7
1059 2 1.4 0.5 25.6
1060 2 4.3 0.5 25.6
1061 2 7.1 0.5 25.6
1062 2 10.0 0.5 25.6
1063 2 12.8 0.5 25.6
1064 2 1.4 3.3 25.6
1065 2 2.9 1.9 24.2
1066 2 4.3 3.3 25.6
1067 2 5.7 1.9 24.2
1068 2 7.1 3.3 25.6
1069 2 8.6 1.9 24.2
1070 2 10.0 3.3 25.6
1071 2 11.4 1.9 24.2
1072 2 12.8 3.3 25.6
1073 2 1.4 6.2 25.6
1074 2 2.9 4.8 24.2
1075 2 4.3 6.2 25.6
1076 2 5.7 4.8 24.2
1077 2 7.1 6.2 25.6
1078 2 8.6 4.8 24.2
1079 2 10.0 6.2 25.6
1080 2 11.4 4.8 24.2
1081 2 12.8 6.2 25.6
1082 2 1.4 9.0 25.6
1083 2 2.9 7.6 24.2
1084 2 4.3 9.0 25.6
1085 2 5.7 7.6 24.2
1086 2 7.1 9.0 25.6
1087 2 8.6 7.6 24.2
1088 2 10.0 9.0 25.6
1089 2 11.4 7.6 24.2
1090 2 12.8 9.0 25.6
1091 2 1.4 11.9 25.6
1092 2 2.9 10.5 24.2
1093 2 4.3 11.9 25.6
1094 2 5.7 10.5 24.2
1095 2 7.1 11.9 25.6
1096 2 8.6 10.5 24.2
1097 2 10.0 11.9 25.6
1098 2 11.4 10.5 24.2
1099 2 12.8 11.9 25.6
1100 2 1.4 14.7 25.6
1101 2 2.9 13.3 24.2
1102 2 4.3 14.7 25.6
1103 2 5.7 13.3 24.2
1104 2 7.1 14.7 25.6
1105 2 8.6 13.3 24.2
1106 2 10.0 14.7 25.6
1107 2 11.4 13.3 24.2
1108 2 12.8 14.7 25.6
1109 2 1.4 0.5 28.4
1110 2 4.3 0.5 28.4
1111 2 7.1 0.5 28.4
1112 2 10.0 0.5 28.4
1113 2 12.8 0.5 28.4
1114 2 1.4 3.3 28.4
1115 2 2.9 1.9 27.0
1116 2 4.3 3.3 28.4
1117 2 5.7 1.9 27.0
1118 2 7.1 3.3 28.4
1119 2 8.6 1.9 27.0
1120 2 10.0 3.3 28.4
1121 2 11.4 1.9 27.0
1122 2 12.8 3.3 28.4
1123 2 1.4 6.2 28.4
1124 2 2.9 4.8 27.0
1125 2 4.3 6.2 28.4
1126 2 5.7 4.8 27.0
1127 2 7.1 6.2 28.4
1128 2 8.6 4.8 27.0
1129 2 10.0 6.2 28.4
1130 2 11.4 4.8 27.0
1131 2 12.8 6.2 28.4
1132 2 1.4 9.0 28.4
1133 2 2.9 7.6 27.0
1134 2 4.3 9.0 28.4
1135 2 5.7 7.6 27.0
1136 2 7.1 9.0 28.4
1137 2 8.6 7.6 27.0
1138 2 10.0 9.0 28.4
1139 2 11.4 7.6 27.0
1140 2 12.8 9.0 28.4
1141 2 1.4 11.9 28.4
1142 2 2.9 10.5 27.0
1143 2 4.3 11.9 28.4
1144 2 5.7 10.5 27.0
1145 2 7.1 11.9 28.4
1146 2 8.6 10.5 27.0
1147 2 10.0 11.9 28.4
1148 2 11.4 10.5 27.0
1149 2 12.8 11.9 28.4
1150 2 1.4 14.7 28.4
1151 2 2.9 13.3 27.0
1152 2 4.3 14.7 28.4
1153 2 5.7 13.3 27.0
1154 2 7.1 14.7 28.4
1155 2 8.6 13.3 27.0
1156 2 10.0 14.7 28.4
1157 2 11.4 13.3 27.0
1158 2 12.8 14.7 28.4
1159 2 1.4 0.5 31.3
1160 2 4.3 0.5 31.3
1161 2 7.1 0.5 31.3
1162 2 10.0 0.5 31.3
1163 2 12.8 0.5 31.3
1164 2 1.4 3.3 31.3
1165 2 2.9 1.9 29.8
1166 2 4.3 3.3 31.3
1167 2 5.7 1.9 29.8
1168 2 7.1 3.3 31.3
1169 2 8.6 1.9 29.8
1170 2 10.0 3.3 31.3
1171 2 11.4 1.9 29.8
1172 2 12.8 3.3 31.3
1173 2 1.4 6.2 31.3
1174 2 2.9 4.8 29.8
1175 2 4.3 6.2 31.3
1176 2 5.7 4.8 29.8
1177 2 7.1 6.2 31.3
1178 2 8.6 4.8 29.8
1179 2 10.0 6.2 31.3
1180 2 11.4 4.8 29.8
1181 2 12.8 6.2 31.3
1182 2 1.4 9.0 31.3
1183 2 2.9 7.6 29.8
1184 2 4.3 9.0 31.3
1185 2 5.7 7.6 29.8
1186 2 7.1 9.0 31.3
1187 2 8.6 7.6 29.8
1188 2 10.0 9.0 31.3
1189 2 11.4 7.6 29.8
1190 2 12.8 9.0 31.3
1191 2 1.4 11.9 31.3
1192 2 2.9 10.5 29.8
1193 2 4.3 11.9 31.3
1194 2 5.7 10.5 29.8
1195 2 7.1 11.9 31.3
1196 2 8.6 10.5 29.8
1197 2 10.0 11.9 31.3
1198 2 11.4 10.5 29.8
1199 2 12.8 11.9 31.3
1200 2 1.4 14.7 31.3
1201 2 2.9 13.3 29.8
1202 2 4.3 14.7 31.3
1203 2 5.7 13.3 29.8
1204 2 7.1 14.7 31.3
1205 2 8.6 13.3 29.8
1206 2 10.0 14.7 31.3
1207 2 11.4 13.3 29.8
1208 2 12.8 14.7 31.3
1209 2 1.4 0.5 34.1
1210 2 4.3 0.5 34.1
1211 2 7.1 0.5 34.1
1212 2 10.0 0.5 34.1
1213 2 12.8 0.5 34.1
1214 2 1.4 3.3 34.1
1215 2 2.9 1.9 32.7
1216 2 4.3 3.3 34.1
1217 2 5.7 1.9 32.7
1218 2 7.1 3.3 34.1
1219 2 8.6 1.9 32.7
1220 2 10.0 3.3 34.1
1221 2 11.4 1.9 32.7
1222 2 12.8 3.3 34.1
1223 2 1.4 6.2 34.1
1224 2 2.9 4.8 32.7
1225 2 4.3 6.2 34.1
1226 2 5.7 4.8 32.7
1227 2 7.1 6.2 34.1
1228 2 8.6 4.8 32.7
1229 2 10.0 6.2 34.1
1230 2 11.4 4.8 32.7
1231 2 12.8 6.2 34.1
1232 2 1.4 9.0 34.1
1233 2 2.9 7.6 32.7
1234 2 4.3 9.0 34.1
1235 2 5.7 7.6 32.7
1236 2 7.1 9.0 34.1
1237 2 8.6 7.6 32.7
1238 2 10.0 9.0 34.1
1239 2 11.4 7.6 32.7
1240 2 12.8 9.0 34.1
1241 2 1.4 11.9 34.1
1242 2 2.9 10.5 32.7
1243 2 4.3 11.9 34.1
1244 2 5.7 10.5 32.7
1245 2 7.1 11.9 34.1
1246 2 8.6 10.5 32.7
1247 2 10.0 11.9 34.1
1248 2 11.4 10.5 32.7
1249 2 12.8 11.9 34.1
1250 2 1.4 14.7 34.1
1251 2 2.9 13.3 32.7
1252 2 4.3 14.7 34.1
1253 2 5.7 13.3 32.7
1254 2 7.1 14.7 34.1
1255 2 8.6 13.3 32.7
1256 2 10.0 14.7 34.1
1257 2 11.4 13.3 32.7
1258 2 12.8 14.7 34.1
1259 2 15.7 0.5 19.9
1260 2 18.5 0.5 19.9
1261 2 21.4 0.5 19.9
1262 2 24.2 0.5 19.9
1263 2 27.1 0.5 19.9
1264 2 14.3 1.9 18.5
1265 2 15.7 3.3 19.9
1266 2 17.1 1.9 18.5
1267 2 18.5 3.3 19.9
1268 2 20.0 1.9 18.5
1269 2 21.4 3.3 19.9
1270 2 22.8 1.9 18.5
1271 2 24.2 3.3 19.9
1272 2 25.7 1.9 18.5
1273 2 27.1 3.3 19.9
1274 2 14.3 4.8 18.5
1275 2 15.7 6.2 19.9
1276 2 17.1 4.8 18.5
1277 2 18.5 6.2 19.9
1278 2 20.0 4.8 18.5
1279 2 21.4 6.2 19.9
1280 2 22.8 4.8 18.5
1281 2 24.2 6.2 19.9
1282 2 25.7 4.8 18.5
1283 2 27.1 6.2 19.9
1284 2 14.3 7.6 18.5
1285 2 15.7 9.0 19.9
1286 2 17.1 7.6 18.5
1287 2 18.5 9.0 19.9
1288 2 20.0 7.6 18.5
1289 2 21.4 9.0 19.9
1290 2 22.8 7.6 18.5
1291 2 24.2 9.0 19.9
1292 2 25.7 7.6 18.5
1293 2 27.1 9.0 19.9
1294 2 14.3 10.5 18.5
1295 2 15.7 11.9 19.9
1296 2 17.1 10.5 18.5
1297 2 18.5 11.9 19.9
1298 2 20.0 10.5 18.5
1299 2 21.4 11.9 19.9
1300 2 22.8 10.5 18.5
1301 2 24.2 11.9 19.9
1302 2 25.7 10.5 18.5
1303 2 27.1 11.9 19.9
1304 2 14.3 13.3 18.5
1305 2 15.7 14.7 19.9
1306 2 17.1 13.3 18.5
1307 2 18.5 14.7 19.9
1308 2 20.0 13.3 18.5
1309 2 21.4 14.7 19.9
1310 2 22.8 13.3 18.5
1311 2 24.2 14.7 19.9
1312 2 25.7 13.3 18.5
1313 2 27.1 14.7 19.9
1314 2 15.7 0.5 22.7
1315 2 18.5 0.5 22.7
1316 2 21.4 0.5 22.7
1317 2 24.2 0.5 22.7
1318 2 27.1 0.5 22.7
1319 2 14.3 1.9 21.3
1320 2 15.7 3.3 22.7
1321 2 17.1 1.9 21.3
1322 2 18.5 3.3 22.7
1323 2 20.0 1.9 21.3
1324 2 21.4 3.3 22.7
1325 2 22.8 1.9 21.3
1326 2 24.2 3.3 22.7
1327 2 25.7 1.9 21.3
1328 2 27.1 3.3 22.7
1329 2 14.3 4.8 21.3
1330 2 15.7 6.2 22.7
1331 2 17.1 4.8 21.3
1332 2 18.5 6.2 22.7
1333 2 20.0 4.8 21.3
1334 2 21.4 6.2 22.7
1335 2 22.8 4.8 21.3
1336 2 24.2 6.2 22.7
1337 2 25.7 4.8 21.3
1338 2 27.1 6.2 22.7
1339 2 14.3 7.6 21.3
1340 2 15.7 9.0 22.7
1341 2 17.1 7.6 21.3
1342 2 18.5 9.0 22.7
1343 2 20.0 7.6 21.3
1344 2 21.4 9.0 22.7
1345 2 22.8 7.6 21.3
1346 2 24.2 9.0 22.7
1347 2 25.7 7.6 21.3
1348 2 27.1 9.0 22.7
1349 2 14.3 10.5 21.3
1350 2 15.7 11.9 22.7
1351 2 17.1 10.5 21.3
1352 2 18.5 11.9 22.7
1353 2 20.0 10.5 21.3
1354 2 21.4 11.9 22.7
1355 2 22.8 10.5 21.3
1356 2 24.2 11.9 22.7
1357 2 25.7 10.5 21.3
1358 2 27.1 11.9 22.7
1359 2 14.3 13.3 21.3
1360 2 15.7 14.7 22.7
1361 2 17.1 13.3 21.3
1362 2 18.5 14.7 22.7
1363 2 20.0 13.3 21.3
1364 2 21.4 14.7 22.7
1365 2 22.8 13.3 21.3
1366 2 24.2 14.7 22.7
1367 2 25.7 13.3 21.3
1368 2 27.1 14.7 22.7
1369 2 15.7 0.5 25.6
1370 2 18.5 0.5 25.6
1371 2 21.4 0.5 25.6
1372 2 24.2 0.5 25.6
1373 2 27.1 0.5 25.6
1374 2 14.3 1.9 24.2
1375 2 15.7 3.3 25.6
1376 2 17.1 1.9 24.2
1377 2 18.5 3.3 25.6
1378 2 20.0 1.9 24.2
1379 2 21.4 3.3 25.6
1380 2 22.8 1.9 24.2
1381 2 24.2 3.3 25.6
1382 2 25.7 1.9 24.2
1383 2 27.1 3.3 25.6
1384 2 14.3 4.8 24.2
1385 2 15.7 6.2 25.6
1386 2 17.1 4.8 24.2
1387 2 18.5 6.2 25.6
1388 2 20.0 4.8 24.2
1389 2 21.4 6.2 25.6
1390 2 22.8 4.8 24.2
1391 2 24.2 6.2 25.6
1392 2 25.7 4.8 24.2
1393 2 27.1 6.2 25.6
1394 2 14.3 7.6 24.2
1395 2 15.7 9.0 25.6
1396 2 17.1 7.6 24.2
1397 2 18.5 9.0 25.6
1398 2 20.0 7.6 24.2
1399 2 21.4 9.0 25.6
1400 2 22.8 7.6 24.2
1401 2 24.2 9.0 25.6
1402 2 25.7 7.6 24.2
1403 2 27.1 9.0 25.6
1404 2 14.3 10.5 24.2
1405 2 15.7 11.9 25.6
1406 2 17.1 10.5 24.2
1407 2 18.5 11.9 25.6
1408 2 20.0 10.5 24.2
1409 2 21.4 11.9 25.6
1410 2 22.8 10.5 24.2
1411 2 24.2 11.9 25.6
1412 2 25.7 10.5 24.2
1413 2 27.1 11.9 25.6
1414 2 14.3 13.3 24.2
1415 2 15.7 14.7 25.6
1416 2 17.1 13.3 24.2
1417 2 18.5 14.7 25.6
1418 2 20.0 13.3 24.2
1419 2 21.4 14.7 25.6
1420 2 22.8 13.3 24.2
1421 2 24.2 14.7 25.6
1422 2 25.7 13.3 24.2
1423 2 27.1 14.7 25.6
1424 2 15.7 0.5 28.4
1425 2 18.5 0.5 28.4
1426 2 21.4 0.5 28.4
1427 2 24.2 0.5 28.4
1428 2 27.1 0.5 28.4
1429 2 14.3 1.9 27.0
1430 2 15.7 3.3 28.4
1431 2 17.1 1.9 27.0
1432 2 18.5 3.3 28.4
1433 2 20.0 1.9 27.0
1434 2 21.4 3.3 28.4
1435 2 22.8 1.9 27.0
1436 2 24.2 3.3 28.4
1437 2 25.7 1.9 27.0
1438 2 27.1 3.3 28.4
1439 2 14.3 4.8 27.0
1440 2 15.7 6.2 28.4
1441 2 17.1 4.8 27.0
1442 2 18.5 6.2 28.4
1443 2 20.0 4.8 27.0
1444 2 21.4 6.2 28.4
1445 2 22.8 4.8 27.0
1446 2 24.2 6.2 28.4
1447 2 25.7 4.8 27.0
1448 2 27.1 6.2 28.4
1449 2 14.3 7.6 27.0
1450 2 15.7 9.0 28.4
1451 2 17.1 7.6 27.0
1452 2 18.5 9.0 28.4
1453 2 20.0 7.6 27.0
1454 2 21.4 9.0 28.4
1455 2 22.8 7.6 27.0
1456 2 24.2 9.0 28.4
1457 2 25.7 7.6 27.0
1458 2 27.1 9.0 28.4
1459 2 14.3 10.5 27.0
1460 2 15.7 11.9 28.4
1461 2 17.1 10.5 27.0
1462 2 18.5 11.9 28.4
1463 2 20.0 10.5 27.0
1464 2 21.4 11.9 28.4
1465 2 22.8 10.5 27.0
1466 2 24.2 11.9 28.4
1467 2 25.7 10.5 27.0
1468 2 27.1 11.9 28.4
1469 2 14.3 13.3 27.0
1470 2 15.7 14.7 28.4
1471 2 17.1 13.3 27.0
1472 2 18.5 14.7 28.4
1473 2 20.0 13.3 27.0
1474 2 21.4 14.7 28.4
1475 2 22.8 13.3 27.0
1476 2 24.2 14.7 28.4
1477 2 25.7 13.3 27.0
1478 2 27.1 14.7 28.4
1479 2 15.7 0.5 31.3
1480 2 18.5 0.5 31.3
1481 2 21.4 0.5 31.3
1482 2 24.2 0.5 31.3
1483 2 27.1 0.5 31.3
1484 2 14.3 1.9 29.8
1485 2 15.7 3.3 31.3
1486 2 17.1 1.9 29.8
1487 2 18.5 3.3 31.3
1488 2 20.0 1.9 29.8
1489 2 21.4 3.3 31.3
1490 2 22.8 1.9 29.8