# LAMMPS data file written by Ovito Pro 3.0.0-dev682
# Insert a Cr Id 126 Position 7.12096 7.11553 7.12259
# 
249 atoms
2 atom types
0.0 14.2406 xlo xhi
0.0 14.2406 ylo yhi
0.0 14.2406 zlo zhi

Masses

1 55.845  # Fe
2 51.996  # Cr

Atoms  # atomic

2 1 1.44186 1.43359 1.41789 
12 1 1.42795 4.28496 1.45814 
53 1 2.8231 0.00949866 2.87651 
63 1 2.86964 2.85058 2.83619 
3 1 2.85551 0.0137088 0.00364416 
11 1 0.0184119 2.87208 0.00450829 
14 1 4.2688 4.26694 1.40581 
6 1 7.11844 1.42138 1.42171 
4 1 4.2793 1.42229 1.42764 
65 1 5.70115 2.88194 2.84818 
55 1 5.70328 0.00859045 2.84722 
52 1 1.43111 1.46879 4.26873 
62 2 1.42878 4.27881 4.26648 
101 1 0.0236369 0.0141012 5.67527 
103 2 2.85618 0.00232359 5.70425 
113 1 2.86496 2.81598 5.71738 
112 1 1.40968 4.26055 7.09204 
111 1 0.00285928 2.82761 5.69274 
115 1 5.69688 2.84983 5.698 
54 1 4.29128 1.43462 4.25801 
64 1 4.25301 4.27353 4.30026 
56 1 7.11268 1.42291 4.27494 
116 1 7.11733 4.23473 7.11828 
102 1 1.41102 1.43073 7.14589 
152 1 1.42596 1.42621 9.95884 
162 1 1.44986 4.25908 9.97095 
163 1 2.85411 2.85532 8.5416 
154 1 4.2733 1.42455 9.96436 
165 1 5.6971 2.85746 8.546 
156 1 7.10873 1.44032 9.95277 
164 1 4.28853 4.29236 9.94943 
104 1 4.2926 1.431 7.13717 
114 1 4.28128 4.28536 7.12343 
106 1 7.11733 1.41384 7.1234 
202 1 1.39756 1.42335 12.814 
203 1 2.84853 0.0165767 11.3889 
211 1 0.0120431 2.86131 11.3836 
212 1 1.43189 4.27834 12.8128 
213 1 2.85945 2.84712 11.3938 
13 1 2.84494 2.8504 14.2337 
15 1 5.69379 2.84417 14.2412 
216 1 7.11584 4.26959 12.8167 
204 1 4.27808 1.42216 12.8169 
205 1 5.72272 0.0086625 11.3863 
214 1 4.2778 4.27624 12.821 
215 1 5.69008 2.85617 11.3881 
206 1 7.10447 1.431 12.8292 
83 1 2.86961 8.52897 2.87796 
22 1 1.43639 7.136 1.44245 
73 1 2.8916 5.71046 2.84052 
21 1 0.0136949 5.70887 0.00149333 
75 2 5.70363 5.69275 2.85232 
25 1 5.70242 5.69944 0.0229774 
24 1 4.27624 7.13421 1.40524 
85 1 5.69592 8.51884 2.85424 
72 1 1.4185 7.09088 4.26417 
123 1 2.8605 5.70285 5.71081 
131 1 0.00703591 8.54838 5.70096 
133 1 2.83954 8.54263 5.67883 
121 1 0.00648031 5.7199 5.72252 
122 1 1.44295 7.13646 7.11217 
135 1 5.75934 8.49061 5.73642 
74 1 4.28051 7.12582 4.29426 
125 1 5.73389 5.73119 5.70804 
172 1 1.44116 7.13292 9.99079 
173 1 2.82988 5.69537 8.53903 
181 1 0.00892651 8.50719 8.52932 
183 1 2.84556 8.54249 8.56169 
171 2 0.0293812 5.72279 8.56718 
174 1 4.28016 7.11044 9.96209 
175 1 5.73931 5.7417 8.49708 
185 1 5.75515 8.49119 8.51792 
124 1 4.24324 7.14553 7.12372 
23 1 2.84212 5.6988 14.2383 
222 1 1.4025 7.10351 12.7938 
223 1 2.86214 5.69387 11.3939 
233 1 2.85825 8.54459 11.3875 
231 1 0.0104367 8.57675 11.4213 
33 1 2.83553 8.52067 14.2245 
221 1 0.00399658 5.67766 11.3527 
31 2 0.00428089 8.54581 14.2375 
235 1 5.6943 8.54189 11.384 
225 1 5.69777 5.69249 11.395 
224 1 4.28105 7.11741 12.8183 
226 1 7.11641 7.12662 12.8212 
35 1 5.69664 8.57902 14.2336 
32 2 1.4736 9.97445 1.42776 
42 1 1.44544 12.7854 1.41746 
93 1 2.84478 11.3887 2.87705 
1 1 0.0136091 14.2375 0.0415516 
95 1 5.69762 11.3803 2.82119 
5 1 5.69373 14.2128 0.00503863 
44 1 4.26139 12.8354 1.45048 
34 1 4.24713 9.94889 1.44233 
45 2 5.69699 11.3908 0.00494947 
82 1 1.42722 9.9589 4.25759 
92 1 1.42007 12.8173 4.2819 
143 1 2.84508 11.4211 5.68814 
132 1 1.45196 9.97322 7.11937 
145 1 5.71356 11.4025 5.68044 
84 1 4.30213 9.95662 4.31439 
94 1 4.28875 12.8115 4.25304 
96 1 7.11863 12.818 4.26282 
105 1 5.67084 14.2357 5.69865 
134 2 4.28206 9.95979 7.11983 
153 1 2.85734 14.2388 8.51532 
142 1 1.40252 12.8081 7.12917 
182 1 1.39525 9.95731 9.967 
191 1 0.00603307 11.3911 8.56587 
192 1 1.44083 12.837 9.95578 
193 1 2.84143 11.3941 8.56124 
155 1 5.69396 14.2337 8.54683 
144 1 4.28508 12.776 7.13267 
184 1 4.28862 9.95524 9.93535 
194 1 4.2725 12.822 9.97918 
195 1 5.70597 11.3962 8.56476 
136 1 7.09442 10.0102 7.1231 
196 1 7.10901 12.802 9.96723 
232 1 1.45955 9.97813 12.8494 
201 1 0.0110706 14.205 11.3889 
242 1 1.44945 12.8304 12.842 
243 1 2.83024 11.3873 11.3766 
43 1 2.90892 11.4075 14.2338 
241 2 0.027425 11.4224 11.4285 
234 1 4.26424 9.95674 12.7974 
244 1 4.2669 12.8351 12.7926 
245 1 5.68871 11.3832 11.4131 
246 1 7.12061 12.8123 12.8164 
8 1 9.9672 1.42902 1.43284 
16 1 7.13622 4.26304 1.41188 
18 1 9.94017 4.26153 1.42296 
57 1 8.55113 0.00435674 2.85016 
67 1 8.53732 2.83765 2.85408 
69 1 11.3837 2.88605 2.85846 
51 2 14.2342 0.0064123 2.84523 
20 1 12.8257 4.26531 1.4184 
61 1 14.2271 2.81592 2.83318 
10 1 12.7961 1.44391 1.38931 
59 1 11.4123 0.0072608 2.84497 
19 1 11.379 2.87007 0.00184479 
58 1 9.96944 1.42207 4.26957 
66 1 7.13395 4.26741 4.28823 
68 1 9.93125 4.27558 4.29634 
117 1 8.54145 2.83953 5.70193 
118 1 9.97876 4.29126 7.11098 
108 1 9.94234 1.39968 7.11551 
119 1 11.3679 2.83655 5.71563 
120 2 12.8078 4.27504 7.06917 
60 1 12.7931 1.43271 4.2778 
70 1 12.8478 4.26205 4.29769 
109 1 11.387 0.0018909 5.70591 
110 1 12.8231 1.43771 7.11657 
158 1 9.95596 1.41815 9.96853 
166 1 7.12372 4.27707 9.96232 
167 1 8.56096 2.8523 8.53381 
168 1 9.91904 4.29653 9.95361 
170 1 12.8122 4.27283 9.93891 
151 1 14.2291 0.00357636 8.54856 
169 2 11.3608 2.81829 8.56511 
160 1 12.8268 1.40548 10.011 
161 1 14.2139 2.87164 8.55327 
159 1 11.4005 0.0198709 8.54134 
208 1 10.0048 1.43878 12.8197 
217 1 8.53455 2.82247 11.3955 
218 1 9.95443 4.26723 12.8088 
7 1 8.5532 0.00682103 14.2167 
17 1 8.54355 2.83869 14.2345 
220 1 12.8152 4.27208 12.8095 
210 2 12.8177 1.42994 12.8149 
219 1 11.3789 2.8712 11.3541 
26 1 7.13378 7.13626 1.40698 
28 1 9.95111 7.1303 1.41189 
77 1 8.54288 5.69612 2.84638 
87 1 8.55111 8.55462 2.84845 
81 1 14.2395 8.56557 2.83142 
71 1 14.2033 5.70859 2.83963 
89 1 11.3841 8.51692 2.84638 
29 1 11.3737 5.67289 0.0288157 
30 1 12.8113 7.12247 1.38964 
79 2 11.3822 5.69671 2.85077 
76 1 7.14106 7.12741 4.24116 
78 1 9.93931 7.13662 4.2861 
127 1 8.49416 5.73838 5.74759 
137 1 8.49565 8.51144 5.74979 
128 1 10.0001 7.10789 7.11731 
80 1 12.8274 7.14377 4.27564 
129 1 11.3762 5.70875 5.64274 
139 1 11.3865 8.54709 5.70624 
130 1 12.803 7.09832 7.11024 
176 1 7.12487 7.11462 10.0111 
177 1 8.49044 5.74061 8.49086 
178 1 9.94979 7.10458 9.94798 
187 1 8.4977 8.50518 8.50147 
179 1 11.4123 5.67465 8.54958 
189 1 11.3693 8.52431 8.52487 
180 1 12.8034 7.15202 9.99849 
227 1 8.53792 5.6968 11.4007 
228 1 9.9875 7.11155 12.8206 
237 1 8.55824 8.54098 11.3875 
37 1 8.55485 8.54949 14.2287 
27 1 8.5418 5.69691 14.228 
239 1 11.3471 8.53882 11.3842 
229 1 11.369 5.67367 11.3734 
230 2 12.7855 7.08076 12.7843 
39 1 11.4051 8.55634 14.2387 
36 1 7.12988 9.95234 1.43711 
38 1 9.97426 9.97034 1.4266 
46 1 7.13792 12.8295 1.43724 
47 1 8.51836 11.3868 0.0101721 
48 1 9.96581 12.8104 1.43102 
97 1 8.55205 11.3882 2.85727 
91 2 14.2162 11.4165 2.87247 
40 1 12.8307 9.97087 1.43013 
9 1 11.3715 14.2361 0.0135231 
50 1 12.7986 12.8112 1.41451 
99 1 11.4039 11.3807 2.8593 
86 1 7.12125 9.96242 4.27038 
88 1 9.95682 9.95155 4.28958 
98 1 9.97472 12.8166 4.27127 
147 1 8.54244 11.3934 5.69258 
107 1 8.53431 14.2354 5.68754 
138 1 9.9498 9.96159 7.11716 
146 1 7.12185 12.8244 7.11991 
150 1 12.8266 12.8221 7.11279 
149 1 11.3837 11.385 5.71098 
90 1 12.7977 9.95045 4.28711 
100 1 12.7951 12.8223 4.29992 
141 1 14.2352 11.3752 5.68527 
157 1 8.53352 14.2317 8.57302 
186 1 7.13004 9.96402 9.97464 
188 1 9.97155 9.96228 9.94684 
197 1 8.5411 11.3863 8.53939 
198 1 9.97899 12.8019 9.95037 
148 1 9.9582 12.8257 7.12047 
140 1 12.8233 9.96143 7.14356 
200 1 12.8055 12.7909 9.9569 
190 2 12.7845 9.93735 9.9345 
199 1 11.3786 11.3989 8.51502 
207 2 8.54257 14.2403 11.3969 
236 1 7.13696 9.96074 12.7963 
238 1 9.95935 9.9813 12.815 
247 1 8.55465 11.4138 11.3815 
248 1 9.97221 12.7939 12.8311 
209 1 11.3578 14.2221 11.3855 
49 1 11.3913 11.3829 14.24 
41 1 14.2348 11.3729 14.2361 
250 1 12.8091 12.854 12.8399 
240 1 12.7982 9.94475 12.784 
249 1 11.4156 11.3947 11.3957 
