LAMMPS (30 Jul 2016)
# Lammps in file of Fe

echo                           screen
  triclinic box = (0 0 0) to (28.4812 28.4812 28.4812) with tilt (0 0 0)
  1 by 1 by 1 MPI processor grid
  reading atoms ...
  2000 atoms
Reading potential file Fe_mm.eam.fs with DATE: 2007-06-11
WARNING: Resetting reneighboring criteria during minimization (../min.cpp:168)
Neighbor list info ...
  1 neighbor list requests
  update every 1 steps, delay 0 steps, check yes
  max neighbors/atom: 2000, page size: 100000
  master list distance cutoff = 5.6
  ghost atom cutoff = 5.6
  binsize = 2.8 -> bins = 11 11 11
Memory usage per processor = 5.17545 Mbytes
Step Temp E_pair E_mol TotEng Press 
       0            0   -8244.1284            0   -8244.1284    13557.666 
       1            0   -8244.1284            0   -8244.1284    13557.666 
Loop time of 0.014313 on 1 procs for 1 steps with 2000 atoms

98.1% CPU use with 1 MPI tasks x no OpenMP threads

Minimization stats:
  Stopping criterion = energy tolerance
  Energy initial, next-to-last, final = 
        -8244.12839364     -8244.12839364     -8244.12839364
  Force two-norm initial, final = 0.00046129 6.32023e-05
  Force max component initial, final = 1.13193e-05 1.60641e-06
  Final line search alpha, max atom move = 1 1.60641e-06
  Iterations, force evaluations = 1 2

MPI task timing breakdown:
Section |  min time  |  avg time  |  max time  |%varavg| %total
---------------------------------------------------------------
Pair    | 0.011193   | 0.011193   | 0.011193   |   0.0 | 78.20
Neigh   | 0          | 0          | 0          |   0.0 |  0.00
Comm    | 5.6267e-05 | 5.6267e-05 | 5.6267e-05 |   0.0 |  0.39
Output  | 0          | 0          | 0          |   0.0 |  0.00
Modify  | 0          | 0          | 0          |   0.0 |  0.00
Other   |            | 0.003064   |            |       | 21.40

Nlocal:    2000 ave 2000 max 2000 min
Histogram: 1 0 0 0 0 0 0 0 0 0
Nghost:    2941 ave 2941 max 2941 min
Histogram: 1 0 0 0 0 0 0 0 0 0
Neighs:    58000 ave 58000 max 58000 min
Histogram: 1 0 0 0 0 0 0 0 0 0

Total # of neighbors = 58000
Ave neighs/atom = 29
Neighbor list builds = 0
Dangerous builds = 0
Neighbor list info ...
  1 neighbor list requests
  update every 1 steps, delay 10 steps, check yes
  max neighbors/atom: 2000, page size: 100000
  master list distance cutoff = 5.6
  ghost atom cutoff = 5.6
  binsize = 2.8 -> bins = 11 11 11
Memory usage per processor = 4.05045 Mbytes
Step Temp E_pair E_mol TotEng Press 
       1            0   -8244.1284            0   -8244.1284    13557.666 
     100 1.2038965e-09   -8244.1284            0   -8244.1284    13557.666 
     200 9.0563393e-10   -8244.1284            0   -8244.1284    13557.666 
     300 3.8478747e-10   -8244.1284            0   -8244.1284    13557.666 
     400 1.2843755e-09   -8244.1284            0   -8244.1284    13557.666 
     500 6.7786867e-10   -8244.1284            0   -8244.1284    13557.666 
     600 1.1225921e-09   -8244.1284            0   -8244.1284    13557.666 
     700 1.1929449e-09   -8244.1284            0   -8244.1284    13557.666 
     800 6.5591082e-10   -8244.1284            0   -8244.1284    13557.666 
     900 1.7001403e-09   -8244.1284            0   -8244.1284    13557.666 
    1000 8.6305719e-10   -8244.1284            0   -8244.1284    13557.666 
    1100  9.61252e-10   -8244.1284            0   -8244.1284    13557.666 
    1200 1.6458408e-09   -8244.1284            0   -8244.1284    13557.666 
    1300 5.3558117e-10   -8244.1284            0   -8244.1284    13557.666 
    1400 1.2763153e-09   -8244.1284            0   -8244.1284    13557.666 
    1500 1.111266e-09   -8244.1284            0   -8244.1284    13557.666 
    1600 4.806236e-10   -8244.1284            0   -8244.1284    13557.666 
    1700 1.2490856e-09   -8244.1284            0   -8244.1284    13557.666 
    1800 5.7618375e-10   -8244.1284            0   -8244.1284    13557.666 
    1900 7.873796e-10   -8244.1284            0   -8244.1284    13557.666 
    2000 9.2543665e-10   -8244.1284            0   -8244.1284    13557.666 
    2100 3.3576186e-10   -8244.1284            0   -8244.1284    13557.666 
    2200 1.352494e-09   -8244.1284            0   -8244.1284    13557.666 
    2300 5.2041308e-10   -8244.1284            0   -8244.1284    13557.666 
    2400 6.2714495e-10   -8244.1284            0   -8244.1284    13557.666 
    2500 1.5879832e-09   -8244.1284            0   -8244.1284    13557.666 
    2600 5.250497e-10   -8244.1284            0   -8244.1284    13557.666 
    2700 1.1025806e-09   -8244.1284            0   -8244.1284    13557.666 
    2800 1.3834915e-09   -8244.1284            0   -8244.1284    13557.666 
    2900 8.0406265e-10   -8244.1284            0   -8244.1284    13557.666 
    3000 1.5192023e-09   -8244.1284            0   -8244.1284    13557.666 
    3100 7.9170677e-10   -8244.1284            0   -8244.1284    13557.666 
    3200 1.2298902e-09   -8244.1284            0   -8244.1284    13557.666 
    3300 1.4056838e-09   -8244.1284            0   -8244.1284    13557.666 
    3400 4.0020189e-10   -8244.1284            0   -8244.1284    13557.666 
    3500 1.4256287e-09   -8244.1284            0   -8244.1284    13557.666 
    3600 8.8342174e-10   -8244.1284            0   -8244.1284    13557.666 
    3700 4.2403793e-10   -8244.1284            0   -8244.1284    13557.666 
    3800 1.3508757e-09   -8244.1284            0   -8244.1284    13557.666 
    3900 3.7460548e-10   -8244.1284            0   -8244.1284    13557.666 
    4000 7.8722854e-10   -8244.1284            0   -8244.1284    13557.666 
    4100 1.0605586e-09   -8244.1284            0   -8244.1284    13557.666 
    4200 3.6210103e-10   -8244.1284            0   -8244.1284    13557.666 
    4300 1.2220918e-09   -8244.1284            0   -8244.1284    13557.666 
    4400 6.5175097e-10   -8244.1284            0   -8244.1284    13557.666 
    4500 9.5893804e-10   -8244.1284            0   -8244.1284    13557.666 
    4600 1.3788765e-09   -8244.1284            0   -8244.1284    13557.666 
    4700 4.6738981e-10   -8244.1284            0   -8244.1284    13557.666 
    4800 1.5439294e-09   -8244.1284            0   -8244.1284    13557.666 
    4900 1.297645e-09   -8244.1284            0   -8244.1284    13557.666 
    5000 5.5553705e-10   -8244.1284            0   -8244.1284    13557.666 
    5100  1.70881e-09   -8244.1284            0   -8244.1284    13557.666 
    5200 9.1003172e-10   -8244.1284            0   -8244.1284    13557.666 
    5300 1.0075847e-09   -8244.1284            0   -8244.1284    13557.666 
    5400 1.2026862e-09   -8244.1284            0   -8244.1284    13557.666 
    5500 6.1829624e-10   -8244.1284            0   -8244.1284    13557.666 
    5600 1.341768e-09   -8244.1284            0   -8244.1284    13557.666 
    5700 5.6399307e-10   -8244.1284            0   -8244.1284    13557.666 
    5800 5.8021312e-10   -8244.1284            0   -8244.1284    13557.666 
    5900 1.370155e-09   -8244.1284            0   -8244.1284    13557.666 
    6000 1.8993747e-10   -8244.1284            0   -8244.1284    13557.666 
    6100 9.4079848e-10   -8244.1284            0   -8244.1284    13557.666 
    6200 1.0596243e-09   -8244.1284            0   -8244.1284    13557.666 
    6300 3.6264004e-10   -8244.1284            0   -8244.1284    13557.666 
    6400 1.3567576e-09   -8244.1284            0   -8244.1284    13557.666 
    6500 7.494902e-10   -8244.1284            0   -8244.1284    13557.666 
    6600 9.5470864e-10   -8244.1284            0   -8244.1284    13557.666 
    6700 1.3822751e-09   -8244.1284            0   -8244.1284    13557.666 
    6800 7.3605451e-10   -8244.1284            0   -8244.1284    13557.666 
    6900 1.5251941e-09   -8244.1284            0   -8244.1284    13557.666 
    7000 1.008389e-09   -8244.1284            0   -8244.1284    13557.666 
    7100 8.7903071e-10   -8244.1284            0   -8244.1284    13557.666 
    7200 1.7665833e-09   -8244.1284            0   -8244.1284    13557.666 
    7300 4.7850473e-10   -8244.1284            0   -8244.1284    13557.666 
    7400 1.1031648e-09   -8244.1284            0   -8244.1284    13557.666 
    7500 1.3500071e-09   -8244.1284            0   -8244.1284    13557.666 
    7600 4.0226185e-10   -8244.1284            0   -8244.1284    13557.666 
    7700 1.1167868e-09   -8244.1284            0   -8244.1284    13557.666 
    7800 6.8784161e-10   -8244.1284            0   -8244.1284    13557.666 
    7900 7.2985307e-10   -8244.1284            0   -8244.1284    13557.666 
    8000 1.0666007e-09   -8244.1284            0   -8244.1284    13557.666 
    8100 1.9937701e-10   -8244.1284            0   -8244.1284    13557.666 
    8200 1.2975097e-09   -8244.1284            0   -8244.1284    13557.666 
    8300 8.7486891e-10   -8244.1284            0   -8244.1284    13557.666 
    8400 3.9004024e-10   -8244.1284            0   -8244.1284    13557.666 
    8500 1.6055902e-09   -8244.1284            0   -8244.1284    13557.666 
    8600 7.173964e-10   -8244.1284            0   -8244.1284    13557.666 
    8700 1.0165745e-09   -8244.1284            0   -8244.1284    13557.666 
    8800 1.5030234e-09   -8244.1284            0   -8244.1284    13557.666 
    8900 7.1256607e-10   -8244.1284            0   -8244.1284    13557.666 
    9000 1.5073837e-09   -8244.1284            0   -8244.1284    13557.666 
    9100 1.0667541e-09   -8244.1284            0   -8244.1284    13557.666 
    9200 9.2313619e-10   -8244.1284            0   -8244.1284    13557.666 
    9300 1.490843e-09   -8244.1284            0   -8244.1284    13557.666 
    9400 5.0318597e-10   -8244.1284            0   -8244.1284    13557.666 
    9500 1.2961885e-09   -8244.1284            0   -8244.1284    13557.666 
    9600 9.7870866e-10   -8244.1284            0   -8244.1284    13557.666 
    9700 2.8853437e-10   -8244.1284            0   -8244.1284    13557.666 
    9800 1.3927246e-09   -8244.1284            0   -8244.1284    13557.666 
    9900 5.7278192e-10   -8244.1284            0   -8244.1284    13557.666 
   10000 5.0331673e-10   -8244.1284            0   -8244.1284    13557.666 
   10100 1.1945901e-09   -8244.1284            0   -8244.1284    13557.666 
   10200 4.793258e-10   -8244.1284            0   -8244.1284    13557.666 
   10300 1.154576e-09   -8244.1284            0   -8244.1284    13557.666 
   10400 7.2948872e-10   -8244.1284            0   -8244.1284    13557.666 
   10500 8.6099785e-10   -8244.1284            0   -8244.1284    13557.666 
   10600 1.6039529e-09   -8244.1284            0   -8244.1284    13557.666 
   10700 4.9631668e-10   -8244.1284            0   -8244.1284    13557.666 
   10800 1.3219459e-09   -8244.1284            0   -8244.1284    13557.666 
   10900 1.5481736e-09   -8244.1284            0   -8244.1284    13557.666 
   11000 5.7554035e-10   -8244.1284            0   -8244.1284    13557.666 
   11100 1.5934159e-09   -8244.1284            0   -8244.1284    13557.666 
   11200 1.0011308e-09   -8244.1284            0   -8244.1284    13557.666 
   11300 8.8722183e-10   -8244.1284            0   -8244.1284    13557.666 
   11400 1.4141585e-09   -8244.1284            0   -8244.1284    13557.666 
   11500 4.7701206e-10   -8244.1284            0   -8244.1284    13557.666 
   11600 1.2089851e-09   -8244.1284            0   -8244.1284    13557.666 
   11700 8.1592788e-10   -8244.1284            0   -8244.1284    13557.666 
   11800 4.6147826e-10   -8244.1284            0   -8244.1284    13557.666 
   11900 1.327355e-09   -8244.1284            0   -8244.1284    13557.666 
   12000 2.9757699e-10   -8244.1284            0   -8244.1284    13557.666 
   12100 8.1987848e-10   -8244.1284            0   -8244.1284    13557.666 
   12200 1.3215724e-09   -8244.1284            0   -8244.1284    13557.666 
   12300 2.1191744e-10   -8244.1284            0   -8244.1284    13557.666 
   12400 1.3037046e-09   -8244.1284            0   -8244.1284    13557.666 
   12500 1.0597147e-09   -8244.1284            0   -8244.1284    13557.666 
   12600 8.1408026e-10   -8244.1284            0   -8244.1284    13557.666 
   12700 1.4002398e-09   -8244.1284            0   -8244.1284    13557.666 
   12800 8.1305005e-10   -8244.1284            0   -8244.1284    13557.666 
   12900 1.5016908e-09   -8244.1284            0   -8244.1284    13557.666 
   13000 1.1903636e-09   -8244.1284            0   -8244.1284    13557.666 
   13100 6.4820177e-10   -8244.1284            0   -8244.1284    13557.666 
   13200 1.8026752e-09   -8244.1284            0   -8244.1284    13557.666 
   13300 7.4111173e-10   -8244.1284            0   -8244.1284    13557.666 
   13400 8.0669834e-10   -8244.1284            0   -8244.1284    13557.666 
   13500 1.4197937e-09   -8244.1284            0   -8244.1284    13557.666 
   13600 4.4642389e-10   -8244.1284            0   -8244.1284    13557.666 
   13700 1.092152e-09   -8244.1284            0   -8244.1284    13557.666 
   13800 7.5095582e-10   -8244.1284            0   -8244.1284    13557.666 
   13900 5.5425882e-10   -8244.1284            0   -8244.1284    13557.666 
   14000 1.2096653e-09   -8244.1284            0   -8244.1284    13557.666 
   14100 3.4711123e-10   -8244.1284            0   -8244.1284    13557.666 
   14200 1.0414104e-09   -8244.1284            0   -8244.1284    13557.666 
   14300 1.0853994e-09   -8244.1284            0   -8244.1284    13557.666 
   14400 3.8917717e-10   -8244.1284            0   -8244.1284    13557.666 
   14500 1.6439436e-09   -8244.1284            0   -8244.1284    13557.666 
   14600 7.9556089e-10   -8244.1284            0   -8244.1284    13557.666 
   14700 8.670568e-10   -8244.1284            0   -8244.1284    13557.666 
   14800 1.7223781e-09   -8244.1284            0   -8244.1284    13557.666 
   14900 7.5813179e-10   -8244.1284            0   -8244.1284    13557.666 
   15000 1.2974736e-09   -8244.1284            0   -8244.1284    13557.666 
   15100 1.2521528e-09   -8244.1284            0   -8244.1284    13557.666 
   15200 8.7792929e-10   -8244.1284            0   -8244.1284    13557.666 
   15300 1.5271795e-09   -8244.1284            0   -8244.1284    13557.666 
   15400 4.6386482e-10   -8244.1284            0   -8244.1284    13557.666 
   15500 1.1422753e-09   -8244.1284            0   -8244.1284    13557.666 
   15600 1.278642e-09   -8244.1284            0   -8244.1284    13557.666 
   15700 1.2235715e-10   -8244.1284            0   -8244.1284    13557.666 
   15800 1.2513968e-09   -8244.1284            0   -8244.1284    13557.666 
   15900 8.1735261e-10   -8244.1284            0   -8244.1284    13557.666 
   16000 4.2050205e-10   -8244.1284            0   -8244.1284    13557.666 
   16100 1.2207081e-09   -8244.1284            0   -8244.1284    13557.666 
   16200 4.8567351e-10   -8244.1284            0   -8244.1284    13557.666 
   16300 1.1045919e-09   -8244.1284            0   -8244.1284    13557.666 
   16400 1.0460436e-09   -8244.1284            0   -8244.1284    13557.666 
   16500 6.1033119e-10   -8244.1284            0   -8244.1284    13557.666 
   16600 1.6471063e-09   -8244.1284            0   -8244.1284    13557.666 
   16700 7.4575538e-10   -8244.1284            0   -8244.1284    13557.666 
   16800 1.1569166e-09   -8244.1284            0   -8244.1284    13557.666 
   16900 1.633106e-09   -8244.1284            0   -8244.1284    13557.666 
   17000 5.7460124e-10   -8244.1284            0   -8244.1284    13557.666 
   17100 1.5266452e-09   -8244.1284            0   -8244.1284    13557.666 
   17200 1.2471994e-09   -8244.1284            0   -8244.1284    13557.666 
   17300 6.0167113e-10   -8244.1284            0   -8244.1284    13557.666 
   17400 1.4574683e-09   -8244.1284            0   -8244.1284    13557.666 
   17500 6.6230986e-10   -8244.1284            0   -8244.1284    13557.666 
   17600 1.0141423e-09   -8244.1284            0   -8244.1284    13557.666 
   17700 8.7860313e-10   -8244.1284            0   -8244.1284    13557.666 
   17800 4.1228976e-10   -8244.1284            0   -8244.1284    13557.666 
   17900 1.3845556e-09   -8244.1284            0   -8244.1284    13557.666 
   18000 4.2639636e-10   -8244.1284            0   -8244.1284    13557.666 
   18100 5.6828905e-10   -8244.1284            0   -8244.1284    13557.666 
   18200 1.4950042e-09   -8244.1284            0   -8244.1284    13557.666 
   18300 3.8117407e-10   -8244.1284            0   -8244.1284    13557.666 
   18400 1.1129738e-09   -8244.1284            0   -8244.1284    13557.666 
   18500  1.18659e-09   -8244.1284            0   -8244.1284    13557.666 
   18600 8.0648097e-10   -8244.1284            0   -8244.1284    13557.666 
   18700 1.5474317e-09   -8244.1284            0   -8244.1284    13557.666 
   18800 7.7240926e-10   -8244.1284            0   -8244.1284    13557.666 
   18900 1.3628466e-09   -8244.1284            0   -8244.1284    13557.666 
   19000 1.4442677e-09   -8244.1284            0   -8244.1284    13557.666 
   19100 6.0257203e-10   -8244.1284            0   -8244.1284    13557.666 
   19200 1.6488383e-09   -8244.1284            0   -8244.1284    13557.666 
   19300 9.0443264e-10   -8244.1284            0   -8244.1284    13557.666 
   19400 6.7153384e-10   -8244.1284            0   -8244.1284    13557.666 
   19500 1.5725025e-09   -8244.1284            0   -8244.1284    13557.666 
   19600 3.3515754e-10   -8244.1284            0   -8244.1284    13557.666 
   19700 9.6256653e-10   -8244.1284            0   -8244.1284    13557.666 
   19800 1.0428517e-09   -8244.1284            0   -8244.1284    13557.666 
   19900 4.0125468e-10   -8244.1284            0   -8244.1284    13557.666 
   20000 1.1498699e-09   -8244.1284            0   -8244.1284    13557.666 
   20100 5.2278073e-10   -8244.1284            0   -8244.1284    13557.666 
   20200 9.3733889e-10   -8244.1284            0   -8244.1284    13557.666 
   20300 1.2883394e-09   -8244.1284            0   -8244.1284    13557.666 
   20400 2.7088045e-10   -8244.1284            0   -8244.1284    13557.666 
   20500 1.5881568e-09   -8244.1284            0   -8244.1284    13557.666 
   20600 1.1792566e-09   -8244.1284            0   -8244.1284    13557.666 
   20700 6.1242345e-10   -8244.1284            0   -8244.1284    13557.666 
   20800 1.7244759e-09   -8244.1284            0   -8244.1284    13557.666 
   20900 9.6022359e-10   -8244.1284            0   -8244.1284    13557.666 
   21000 1.1995005e-09   -8244.1284            0   -8244.1284    13557.666 
   21100 1.3217776e-09   -8244.1284            0   -8244.1284    13557.666 
   21200 7.6807123e-10   -8244.1284            0   -8244.1284    13557.666 
   21300 1.5432973e-09   -8244.1284            0   -8244.1284    13557.666 
   21400 6.9007881e-10   -8244.1284            0   -8244.1284    13557.666 
   21500 8.0843332e-10   -8244.1284            0   -8244.1284    13557.666 
   21600 1.3955996e-09   -8244.1284            0   -8244.1284    13557.666 
   21700 2.2733279e-10   -8244.1284            0   -8244.1284    13557.666 
   21800 1.1348833e-09   -8244.1284            0   -8244.1284    13557.666 
   21900 8.9108217e-10   -8244.1284            0   -8244.1284    13557.666 
   22000 3.4016297e-10   -8244.1284            0   -8244.1284    13557.666 
   22100 1.3274584e-09   -8244.1284            0   -8244.1284    13557.666 
   22200 6.204626e-10   -8244.1284            0   -8244.1284    13557.666 
   22300 8.7350336e-10   -8244.1284            0   -8244.1284    13557.666 
   22400 1.2570169e-09   -8244.1284            0   -8244.1284    13557.666 
   22500 6.6157009e-10   -8244.1284            0   -8244.1284    13557.666 
   22600 1.6157829e-09   -8244.1284            0   -8244.1284    13557.666 
   22700 8.2873162e-10   -8244.1284            0   -8244.1284    13557.666 
   22800 1.0339894e-09   -8244.1284            0   -8244.1284    13557.666 
   22900 1.8728406e-09   -8244.1284            0   -8244.1284    13557.666 
   23000 5.4680027e-10   -8244.1284            0   -8244.1284    13557.666 
   23100 1.2982298e-09   -8244.1284            0   -8244.1284    13557.666 
   23200 1.502549e-09   -8244.1284            0   -8244.1284    13557.666 
   23300 5.6613182e-10   -8244.1284            0   -8244.1284    13557.666 
   23400 1.3530922e-09   -8244.1284            0   -8244.1284    13557.666 
   23500 7.226766e-10   -8244.1284            0   -8244.1284    13557.666 
   23600 9.0483959e-10   -8244.1284            0   -8244.1284    13557.666 
   23700 1.1249694e-09   -8244.1284            0   -8244.1284    13557.666 
   23800 2.1699029e-10   -8244.1284            0   -8244.1284    13557.666 
   23900 1.3039381e-09   -8244.1284            0   -8244.1284    13557.666 
   24000 7.3430644e-10   -8244.1284            0   -8244.1284    13557.666 
   24100 4.2479297e-10   -8244.1284            0   -8244.1284    13557.666 
   24200 1.4806303e-09   -8244.1284            0   -8244.1284    13557.666 
   24300 5.2350991e-10   -8244.1284            0   -8244.1284    13557.666 
   24400 1.0309035e-09   -8244.1284            0   -8244.1284    13557.666 
   24500 1.4353603e-09   -8244.1284            0   -8244.1284    13557.666 
   24600 6.2244211e-10   -8244.1284            0   -8244.1284    13557.666 
   24700 1.5749711e-09   -8244.1284            0   -8244.1284    13557.666 
   24800 1.0414906e-09   -8244.1284            0   -8244.1284    13557.666 
   24900 1.159941e-09   -8244.1284            0   -8244.1284    13557.666 
   25000 1.5043113e-09   -8244.1284            0   -8244.1284    13557.666 
   25100 6.464379e-10   -8244.1284            0   -8244.1284    13557.666 
   25200 1.5905298e-09   -8244.1284            0   -8244.1284    13557.666 
   25300 1.0795417e-09   -8244.1284            0   -8244.1284    13557.666 
   25400 4.1051248e-10   -8244.1284            0   -8244.1284    13557.666 
   25500 1.6368571e-09   -8244.1284            0   -8244.1284    13557.666 
   25600 5.7132386e-10   -8244.1284            0   -8244.1284    13557.666 
   25700 6.6690285e-10   -8244.1284            0   -8244.1284    13557.666 
   25800 1.1470488e-09   -8244.1284            0   -8244.1284    13557.666 
   25900 4.4719529e-10   -8244.1284            0   -8244.1284    13557.666 
   26000 1.1721983e-09   -8244.1284            0   -8244.1284    13557.666 
   26100 5.8672468e-10   -8244.1284            0   -8244.1284    13557.666 
   26200 7.7423308e-10   -8244.1284            0   -8244.1284    13557.666 
   26300 1.5090133e-09   -8244.1284            0   -8244.1284    13557.666 
   26400 3.9808871e-10   -8244.1284            0   -8244.1284    13557.666 
   26500 1.3282965e-09   -8244.1284            0   -8244.1284    13557.666 
   26600 1.4267724e-09   -8244.1284            0   -8244.1284    13557.666 
   26700 6.1129055e-10   -8244.1284            0   -8244.1284    13557.666 
   26800 1.7546944e-09   -8244.1284            0   -8244.1284    13557.666 
   26900 9.7870343e-10   -8244.1284            0   -8244.1284    13557.666 
   27000 1.0853468e-09   -8244.1284            0   -8244.1284    13557.666 
   27100 1.5469901e-09   -8244.1284            0   -8244.1284    13557.666 
   27200 7.0803274e-10   -8244.1284            0   -8244.1284    13557.666 
   27300 1.3668985e-09   -8244.1284            0   -8244.1284    13557.666 
   27400 9.0128078e-10   -8244.1284            0   -8244.1284    13557.666 
   27500 6.9488453e-10   -8244.1284            0   -8244.1284    13557.666 
   27600 1.4636656e-09   -8244.1284            0   -8244.1284    13557.666 
   27700 1.8941599e-10   -8244.1284            0   -8244.1284    13557.666 
   27800 1.0059116e-09   -8244.1284            0   -8244.1284    13557.666 
   27900 1.2199406e-09   -8244.1284            0   -8244.1284    13557.666 
   28000 1.6020244e-10   -8244.1284            0   -8244.1284    13557.666 
   28100 1.2472155e-09   -8244.1284            0   -8244.1284    13557.666 
   28200 8.9567534e-10   -8244.1284            0   -8244.1284    13557.666 
   28300 7.8697111e-10   -8244.1284            0   -8244.1284    13557.666 
   28400 1.3255527e-09   -8244.1284            0   -8244.1284    13557.666 
   28500 6.5964711e-10   -8244.1284            0   -8244.1284    13557.666 
   28600 1.5931221e-09   -8244.1284            0   -8244.1284    13557.666 
   28700 1.152541e-09   -8244.1284            0   -8244.1284    13557.666 
   28800 7.3611296e-10   -8244.1284            0   -8244.1284    13557.666 
   28900 1.9304335e-09   -8244.1284            0   -8244.1284    13557.666 
   29000 7.9521949e-10   -8244.1284            0   -8244.1284    13557.666 
   29100 1.1045804e-09   -8244.1284            0   -8244.1284    13557.666 
   29200 1.5405435e-09   -8244.1284            0   -8244.1284    13557.666 
   29300 5.7436011e-10   -8244.1284            0   -8244.1284    13557.666 
   29400 1.3250624e-09   -8244.1284            0   -8244.1284    13557.666 
   29500 8.8717977e-10   -8244.1284            0   -8244.1284    13557.666 
   29600 6.2940342e-10   -8244.1284            0   -8244.1284    13557.666 
   29700 1.2595921e-09   -8244.1284            0   -8244.1284    13557.666 
   29800 3.4113963e-10   -8244.1284            0   -8244.1284    13557.666 
   29900 1.1458637e-09   -8244.1284            0   -8244.1284    13557.666 
   30000 8.4431462e-10   -8244.1284            0   -8244.1284    13557.666 
   30100 3.8089243e-10   -8244.1284            0   -8244.1284    13557.666 
   30200 1.6032205e-09   -8244.1284            0   -8244.1284    13557.666 
   30300 6.2159724e-10   -8244.1284            0   -8244.1284    13557.666 
   30400 8.1311939e-10   -8244.1284            0   -8244.1284    13557.666 
   30500 1.6859955e-09   -8244.1284            0   -8244.1284    13557.666 
   30600 7.0568404e-10   -8244.1284            0   -8244.1284    13557.666 
   30700 1.4278915e-09   -8244.1284            0   -8244.1284    13557.666 
   30800 1.1853888e-09   -8244.1284            0   -8244.1284    13557.666 
   30900 1.078839e-09   -8244.1284            0   -8244.1284    13557.666 
   31000 1.7033282e-09   -8244.1284            0   -8244.1284    13557.666 
   31100 5.5113205e-10   -8244.1284            0   -8244.1284    13557.666 
   31200 1.4050204e-09   -8244.1284            0   -8244.1284    13557.666 
   31300 1.4046175e-09   -8244.1284            0   -8244.1284    13557.666 
   31400 3.002346e-10   -8244.1284            0   -8244.1284    13557.666 
   31500 1.4546847e-09   -8244.1284            0   -8244.1284    13557.666 
   31600 7.9759893e-10   -8244.1284            0   -8244.1284    13557.666 
   31700 5.2729553e-10   -8244.1284            0   -8244.1284    13557.666 
   31800 1.3017741e-09   -8244.1284            0   -8244.1284    13557.666 
   31900 3.4809401e-10   -8244.1284            0   -8244.1284    13557.666 
   32000 1.0997269e-09   -8244.1284            0   -8244.1284    13557.666 
   32100 9.1385366e-10   -8244.1284            0   -8244.1284    13557.666 
   32200 6.0647056e-10   -8244.1284            0   -8244.1284    13557.666 
   32300 1.4811623e-09   -8244.1284            0   -8244.1284    13557.666 
   32400 6.317536e-10   -8244.1284            0   -8244.1284    13557.666 
   32500 1.2192988e-09   -8244.1284            0   -8244.1284    13557.666 
   32600 1.5991896e-09   -8244.1284            0   -8244.1284    13557.666 
   32700 5.1928996e-10   -8244.1284            0   -8244.1284    13557.666 
   32800 1.7307232e-09   -8244.1284            0   -8244.1284    13557.666 
   32900 1.2808597e-09   -8244.1284            0   -8244.1284    13557.666 
   33000 8.387602e-10   -8244.1284            0   -8244.1284    13557.666 
   33100 1.5644433e-09   -8244.1284            0   -8244.1284    13557.666 
   33200 8.4132551e-10   -8244.1284            0   -8244.1284    13557.666 
   33300 1.2992772e-09   -8244.1284            0   -8244.1284    13557.666 
   33400 9.4550109e-10   -8244.1284            0   -8244.1284    13557.666 
   33500 5.4773312e-10   -8244.1284            0   -8244.1284    13557.666 
   33600 1.5620755e-09   -8244.1284            0   -8244.1284    13557.666 
   33700 3.7182373e-10   -8244.1284            0   -8244.1284    13557.666 
   33800 6.7465501e-10   -8244.1284            0   -8244.1284    13557.666 
   33900 1.4163118e-09   -8244.1284            0   -8244.1284    13557.666 
   34000 2.4865859e-10   -8244.1284            0   -8244.1284    13557.666 
   34100 1.186147e-09   -8244.1284            0   -8244.1284    13557.666 
   34200 9.675826e-10   -8244.1284            0   -8244.1284    13557.666 
   34300 7.2285208e-10   -8244.1284            0   -8244.1284    13557.666 
   34400 1.5274264e-09   -8244.1284            0   -8244.1284    13557.666 
   34500 7.1822745e-10   -8244.1284            0   -8244.1284    13557.666 
   34600 1.363774e-09   -8244.1284            0   -8244.1284    13557.666 
   34700 1.4550929e-09   -8244.1284            0   -8244.1284    13557.666 
   34800 6.9861024e-10   -8244.1284            0   -8244.1284    13557.666 
   34900 1.8877787e-09   -8244.1284            0   -8244.1284    13557.666 
   35000 8.8896491e-10   -8244.1284            0   -8244.1284    13557.666 
   35100 9.5597427e-10   -8244.1284            0   -8244.1284    13557.666 
   35200 1.772763e-09   -8244.1284            0   -8244.1284    13557.666 
   35300 4.9157735e-10   -8244.1284            0   -8244.1284    13557.666 
   35400 1.1199246e-09   -8244.1284            0   -8244.1284    13557.666 
   35500 1.1663408e-09   -8244.1284            0   -8244.1284    13557.666 
   35600 5.3581729e-10   -8244.1284            0   -8244.1284    13557.666 
   35700 1.2071972e-09   -8244.1284            0   -8244.1284    13557.666 
   35800 4.1774312e-10   -8244.1284            0   -8244.1284    13557.666 
   35900 1.0413571e-09   -8244.1284            0   -8244.1284    13557.666 
   36000 1.149131e-09   -8244.1284            0   -8244.1284    13557.666 
   36100 1.7324185e-10   -8244.1284            0   -8244.1284    13557.666 
   36200 1.5608693e-09   -8244.1284            0   -8244.1284    13557.666 
   36300 9.8330514e-10   -8244.1284            0   -8244.1284    13557.666 
   36400 6.5252066e-10   -8244.1284            0   -8244.1284    13557.666 
   36500 1.6782511e-09   -8244.1284            0   -8244.1284    13557.666 
   36600 8.6599094e-10   -8244.1284            0   -8244.1284    13557.666 
   36700 1.3593878e-09   -8244.1284            0   -8244.1284    13557.666 
   36800 1.4023052e-09   -8244.1284            0   -8244.1284    13557.666 
   36900 8.4883401e-10   -8244.1284            0   -8244.1284    13557.666 
   37000 1.7727818e-09   -8244.1284            0   -8244.1284    13557.666 
   37100 7.8808712e-10   -8244.1284            0   -8244.1284    13557.666 
   37200 1.1432727e-09   -8244.1284            0   -8244.1284    13557.666 
   37300 1.4692893e-09   -8244.1284            0   -8244.1284    13557.666 
   37400 3.645077e-10   -8244.1284            0   -8244.1284    13557.666 
   37500 1.3811143e-09   -8244.1284            0   -8244.1284    13557.666 
   37600 9.3249061e-10   -8244.1284            0   -8244.1284    13557.666 
   37700 3.1795548e-10   -8244.1284            0   -8244.1284    13557.666 
   37800 1.4184696e-09   -8244.1284            0   -8244.1284    13557.666 
   37900 5.2827253e-10   -8244.1284            0   -8244.1284    13557.666 
   38000 8.7470493e-10   -8244.1284            0   -8244.1284    13557.666 
   38100 1.057806e-09   -8244.1284            0   -8244.1284    13557.666 
   38200 6.3656568e-10   -8244.1284            0   -8244.1284    13557.666 
   38300 1.5744335e-09   -8244.1284            0   -8244.1284    13557.666 
   38400 6.6718499e-10   -8244.1284            0   -8244.1284    13557.666 
   38500 1.0695319e-09   -8244.1284            0   -8244.1284    13557.666 
   38600 1.8789077e-09   -8244.1284            0   -8244.1284    13557.666 
   38700 5.6720118e-10   -8244.1284            0   -8244.1284    13557.666 
   38800 1.4892413e-09   -8244.1284            0   -8244.1284    13557.666 
   38900 1.5318856e-09   -8244.1284            0   -8244.1284    13557.666 
   39000 7.7860373e-10   -8244.1284            0   -8244.1284    13557.666 
   39100 1.6283851e-09   -8244.1284            0   -8244.1284    13557.666 
   39200 7.7821825e-10   -8244.1284            0   -8244.1284    13557.666 
   39300 1.1874761e-09   -8244.1284            0   -8244.1284    13557.666 
   39400 1.2362796e-09   -8244.1284            0   -8244.1284    13557.666 
   39500 3.7886006e-10   -8244.1284            0   -8244.1284    13557.666 
   39600 1.4120113e-09   -8244.1284            0   -8244.1284    13557.666 
   39700 6.7487882e-10   -8244.1284            0   -8244.1284    13557.666 
   39800 5.0067697e-10   -8244.1284            0   -8244.1284    13557.666 
   39900 1.5143713e-09   -8244.1284            0   -8244.1284    13557.666 
   40000 2.5890397e-10   -8244.1284            0   -8244.1284    13557.666 
   40100 1.0884489e-09   -8244.1284            0   -8244.1284    13557.666 
   40200 1.3136724e-09   -8244.1284            0   -8244.1284    13557.666 
   40300 5.3490618e-10   -8244.1284            0   -8244.1284    13557.666 
   40400 1.4978348e-09   -8244.1284            0   -8244.1284    13557.666 
   40500 1.0105264e-09   -8244.1284            0   -8244.1284    13557.666 
   40600 1.2415615e-09   -8244.1284            0   -8244.1284    13557.666 
   40700 1.532816e-09   -8244.1284            0   -8244.1284    13557.666 
   40800 6.901961e-10   -8244.1284            0   -8244.1284    13557.666 
   40900 1.8553189e-09   -8244.1284            0   -8244.1284    13557.666 
   41000 1.1732535e-09   -8244.1284            0   -8244.1284    13557.666 
   41100 6.3797128e-10   -8244.1284            0   -8244.1284    13557.666 
   41200 1.832874e-09   -8244.1284            0   -8244.1284    13557.666 
   41300 7.020006e-10   -8244.1284            0   -8244.1284    13557.666 
   41400 9.4218997e-10   -8244.1284            0   -8244.1284    13557.666 
   41500 1.176496e-09   -8244.1284            0   -8244.1284    13557.666 
   41600 5.3705111e-10   -8244.1284            0   -8244.1284    13557.666 
   41700 1.2644902e-09   -8244.1284            0   -8244.1284    13557.666 
   41800 5.3167517e-10   -8244.1284            0   -8244.1284    13557.666 
   41900 7.6722532e-10   -8244.1284            0   -8244.1284    13557.666 
   42000 1.4068081e-09   -8244.1284            0   -8244.1284    13557.666 
   42100 2.5798726e-10   -8244.1284            0   -8244.1284    13557.666 
   42200 1.4152109e-09   -8244.1284            0   -8244.1284    13557.666 
   42300 1.1465792e-09   -8244.1284            0   -8244.1284    13557.666 
   42400 6.1560894e-10   -8244.1284            0   -8244.1284    13557.666 
   42500 1.8243398e-09   -8244.1284            0   -8244.1284    13557.666 
   42600 9.1823124e-10   -8244.1284            0   -8244.1284    13557.666 
   42700 1.1530672e-09   -8244.1284            0   -8244.1284    13557.666 
   42800 1.6976049e-09   -8244.1284            0   -8244.1284    13557.666 
   42900 8.3243654e-10   -8244.1284            0   -8244.1284    13557.666 
   43000 1.6253447e-09   -8244.1284            0   -8244.1284    13557.666 
   43100 9.526019e-10   -8244.1284            0   -8244.1284    13557.666 
   43200 1.0050055e-09   -8244.1284            0   -8244.1284    13557.666 
   43300 1.6624019e-09   -8244.1284            0   -8244.1284    13557.666 
   43400 2.5810073e-10   -8244.1284            0   -8244.1284    13557.666 
   43500 1.1983196e-09   -8244.1284            0   -8244.1284    13557.666 
   43600 1.2721859e-09   -8244.1284            0   -8244.1284    13557.666 
   43700 2.0486717e-10   -8244.1284            0   -8244.1284    13557.666 
   43800 1.2619672e-09   -8244.1284            0   -8244.1284    13557.666 
   43900 7.6903524e-10   -8244.1284            0   -8244.1284    13557.666 
   44000 7.8735823e-10   -8244.1284            0   -8244.1284    13557.666 
   44100 1.2330897e-09   -8244.1284            0   -8244.1284    13557.666 
   44200 5.0796748e-10   -8244.1284            0   -8244.1284    13557.666 
   44300 1.5953522e-09   -8244.1284            0   -8244.1284    13557.666 
   44400 9.9779768e-10   -8244.1284            0   -8244.1284    13557.666 
   44500 8.5313228e-10   -8244.1284            0   -8244.1284    13557.666 
   44600 1.8947731e-09   -8244.1284            0   -8244.1284    13557.666 
   44700 7.9441991e-10   -8244.1284            0   -8244.1284    13557.666 
   44800 1.3648124e-09   -8244.1284            0   -8244.1284    13557.666 
   44900 1.6687613e-09   -8244.1284            0   -8244.1284    13557.666 
   45000 6.4407736e-10   -8244.1284            0   -8244.1284    13557.666 
   45100 1.6683344e-09   -8244.1284            0   -8244.1284    13557.666 
   45200 9.9499279e-10   -8244.1284            0   -8244.1284    13557.666 
   45300 8.9354171e-10   -8244.1284            0   -8244.1284    13557.666 
   45400 1.3394904e-09   -8244.1284            0   -8244.1284    13557.666 
   45500 4.5785225e-10   -8244.1284            0   -8244.1284    13557.666 
   45600 1.3345348e-09   -8244.1284            0   -8244.1284    13557.666 
   45700 7.7187503e-10   -8244.1284            0   -8244.1284    13557.666 
   45800 3.4154112e-10   -8244.1284            0   -8244.1284    13557.666 
   45900 1.6693412e-09   -8244.1284            0   -8244.1284    13557.666 
   46000 4.4614383e-10   -8244.1284            0   -8244.1284    13557.666 
   46100 7.6865975e-10   -8244.1284            0   -8244.1284    13557.666 
   46200 1.5753196e-09   -8244.1284            0   -8244.1284    13557.666 
   46300 6.1356554e-10   -8244.1284            0   -8244.1284    13557.666 
   46400 1.4622712e-09   -8244.1284            0   -8244.1284    13557.666 
   46500 1.0777227e-09   -8244.1284            0   -8244.1284    13557.666 
   46600 1.1700514e-09   -8244.1284            0   -8244.1284    13557.666 
   46700 1.7730344e-09   -8244.1284            0   -8244.1284    13557.666 
   46800 6.8334349e-10   -8244.1284            0   -8244.1284    13557.666 
   46900 1.5955407e-09   -8244.1284            0   -8244.1284    13557.666 
   47000 1.5179159e-09   -8244.1284            0   -8244.1284    13557.666 
   47100 5.4373076e-10   -8244.1284            0   -8244.1284    13557.666 
   47200 1.7552314e-09   -8244.1284            0   -8244.1284    13557.666 
   47300 7.8791337e-10   -8244.1284            0   -8244.1284    13557.666 
   47400 8.2052857e-10   -8244.1284            0   -8244.1284    13557.666 
   47500 1.3956857e-09   -8244.1284            0   -8244.1284    13557.666 
   47600 4.0767977e-10   -8244.1284            0   -8244.1284    13557.666 
   47700 1.1312899e-09   -8244.1284            0   -8244.1284    13557.666 
   47800 8.4972044e-10   -8244.1284            0   -8244.1284    13557.666 
   47900 6.3061755e-10   -8244.1284            0   -8244.1284    13557.666 
   48000 1.4152357e-09   -8244.1284            0   -8244.1284    13557.666 
   48100 3.751303e-10   -8244.1284            0   -8244.1284    13557.666 
   48200 1.3246673e-09   -8244.1284            0   -8244.1284    13557.666 
   48300 1.4610103e-09   -8244.1284            0   -8244.1284    13557.666 
   48400 4.1503851e-10   -8244.1284            0   -8244.1284    13557.666 
   48500 1.8181606e-09   -8244.1284            0   -8244.1284    13557.666 
   48600 1.2542181e-09   -8244.1284            0   -8244.1284    13557.666 
   48700 9.8410067e-10   -8244.1284            0   -8244.1284    13557.666 
   48800 1.6839064e-09   -8244.1284            0   -8244.1284    13557.666 
   48900 9.5001969e-10   -8244.1284            0   -8244.1284    13557.666 
   49000 1.5807204e-09   -8244.1284            0   -8244.1284    13557.666 
   49100 1.117121e-09   -8244.1284            0   -8244.1284    13557.666 
   49200 7.2345127e-10   -8244.1284            0   -8244.1284    13557.666 
   49300 1.795342e-09   -8244.1284            0   -8244.1284    13557.666 
   49400 4.4291807e-10   -8244.1284            0   -8244.1284    13557.666 
   49500 9.2666657e-10   -8244.1284            0   -8244.1284    13557.666 
   49600 1.3639378e-09   -8244.1284            0   -8244.1284    13557.666 
   49700 2.738611e-10   -8244.1284            0   -8244.1284    13557.666 
   49800 1.2513668e-09   -8244.1284            0   -8244.1284    13557.666 
   49900 8.6218036e-10   -8244.1284            0   -8244.1284    13557.666 
   50000 6.0770028e-10   -8244.1284            0   -8244.1284    13557.666 
   50100 1.4823214e-09   -8244.1284            0   -8244.1284    13557.666 
   50200 5.9239034e-10   -8244.1284            0   -8244.1284    13557.666 
   50300 1.4010321e-09   -8244.1284            0   -8244.1284    13557.666 
   50400 1.2417592e-09   -8244.1284            0   -8244.1284    13557.666 
   50500 8.0432077e-10   -8244.1284            0   -8244.1284    13557.666 
   50600 2.0090385e-09   -8244.1284            0   -8244.1284    13557.666 
   50700 8.3261025e-10   -8244.1284            0   -8244.1284    13557.666 
   50800 1.1674982e-09   -8244.1284            0   -8244.1284    13557.666 
   50900 1.9842848e-09   -8244.1284            0   -8244.1284    13557.666 
   51000 6.1713196e-10   -8244.1284            0   -8244.1284    13557.666 
   51100 1.4040439e-09   -8244.1284            0   -8244.1284    13557.666 
   51200 1.2838591e-09   -8244.1284            0   -8244.1284    13557.666 
   51300 7.666883e-10   -8244.1284            0   -8244.1284    13557.666 
   51400 1.4134378e-09   -8244.1284            0   -8244.1284    13557.666 
   51500 4.0289974e-10   -8244.1284            0   -8244.1284    13557.666 
   51600 1.2113291e-09   -8244.1284            0   -8244.1284    13557.666 
   51700 1.1143354e-09   -8244.1284            0   -8244.1284    13557.666 
   51800 1.7196652e-10   -8244.1284            0   -8244.1284    13557.666 
   51900 1.5147751e-09   -8244.1284            0   -8244.1284    13557.666 
   52000 8.3027773e-10   -8244.1284            0   -8244.1284    13557.666 
   52100 6.2123754e-10   -8244.1284            0   -8244.1284    13557.666 
   52200 1.6406797e-09   -8244.1284            0   -8244.1284    13557.666 
   52300 6.6098239e-10   -8244.1284            0   -8244.1284    13557.666 
   52400 1.4426181e-09   -8244.1284            0   -8244.1284    13557.666 
   52500 1.3550622e-09   -8244.1284            0   -8244.1284    13557.666 
   52600 9.6751112e-10   -8244.1284            0   -8244.1284    13557.666 
   52700 1.7988466e-09   -8244.1284            0   -8244.1284    13557.666 
   52800 9.216951e-10   -8244.1284            0   -8244.1284    13557.666 
   52900 1.4484068e-09   -8244.1284            0   -8244.1284    13557.666 
   53000 1.5775108e-09   -8244.1284            0   -8244.1284    13557.666 
   53100 5.0498316e-10   -8244.1284            0   -8244.1284    13557.666 
   53200 1.7583127e-09   -8244.1284            0   -8244.1284    13557.666 
   53300 9.8739315e-10   -8244.1284            0   -8244.1284    13557.666 
   53400 5.0556034e-10   -8244.1284            0   -8244.1284    13557.666 
   53500 1.5337032e-09   -8244.1284            0   -8244.1284    13557.666 
   53600 5.3698586e-10   -8244.1284            0   -8244.1284    13557.666 
   53700 1.0055495e-09   -8244.1284            0   -8244.1284    13557.666 
   53800 9.0886729e-10   -8244.1284            0   -8244.1284    13557.666 
   53900 5.9267526e-10   -8244.1284            0   -8244.1284    13557.666 
   54000 1.5753968e-09   -8244.1284            0   -8244.1284    13557.666 
   54100 4.8095837e-10   -8244.1284            0   -8244.1284    13557.666 
   54200 1.0256901e-09   -8244.1284            0   -8244.1284    13557.666 
   54300 1.8306937e-09   -8244.1284            0   -8244.1284    13557.666 
   54400 4.5943749e-10   -8244.1284            0   -8244.1284    13557.666 
   54500 1.6568786e-09   -8244.1284            0   -8244.1284    13557.666 
   54600 1.4421861e-09   -8244.1284            0   -8244.1284    13557.666 
   54700 9.3141389e-10   -8244.1284            0   -8244.1284    13557.666 
   54800 1.8308318e-09   -8244.1284            0   -8244.1284    13557.666 
   54900 9.3116676e-10   -8244.1284            0   -8244.1284    13557.666 
   55000 1.3676248e-09   -8244.1284            0   -8244.1284    13557.666 
   55100 1.4582245e-09   -8244.1284            0   -8244.1284    13557.666 
   55200 6.055971e-10   -8244.1284            0   -8244.1284    13557.666 
   55300 1.6438825e-09   -8244.1284            0   -8244.1284    13557.666 
   55400 6.5311126e-10   -8244.1284            0   -8244.1284    13557.666 
   55500 7.6548169e-10   -8244.1284            0   -8244.1284    13557.666 
   55600 1.5526417e-09   -8244.1284            0   -8244.1284    13557.666 
   55700 1.8079081e-10   -8244.1284            0   -8244.1284    13557.666 
   55800 1.1280999e-09   -8244.1284            0   -8244.1284    13557.666 
   55900 1.2158836e-09   -8244.1284            0   -8244.1284    13557.666 
   56000 4.829107e-10   -8244.1284            0   -8244.1284    13557.666 
   56100 1.3999111e-09   -8244.1284            0   -8244.1284    13557.666 
   56200 8.4176901e-10   -8244.1284            0   -8244.1284    13557.666 
   56300 1.3189974e-09   -8244.1284            0   -8244.1284    13557.666 
   56400 1.4518809e-09   -8244.1284            0   -8244.1284    13557.666 
   56500 6.3764017e-10   -8244.1284            0   -8244.1284    13557.666 
   56600 2.060989e-09   -8244.1284            0   -8244.1284    13557.666 
   56700 1.156405e-09   -8244.1284            0   -8244.1284    13557.666 
   56800 8.9380903e-10   -8244.1284            0   -8244.1284    13557.666 
   56900 1.997325e-09   -8244.1284            0   -8244.1284    13557.666 
   57000 8.354792e-10   -8244.1284            0   -8244.1284    13557.666 
   57100 1.2608257e-09   -8244.1284            0   -8244.1284    13557.666 
   57200  1.37366e-09   -8244.1284            0   -8244.1284    13557.666 
   57300 6.1359017e-10   -8244.1284            0   -8244.1284    13557.666 
   57400 1.5210591e-09   -8244.1284            0   -8244.1284    13557.666 
   57500 5.6081674e-10   -8244.1284            0   -8244.1284    13557.666 
   57600 9.0659608e-10   -8244.1284            0   -8244.1284    13557.666 
   57700 1.2997772e-09   -8244.1284            0   -8244.1284    13557.666 
   57800 2.5352023e-10   -8244.1284            0   -8244.1284    13557.666 
   57900 1.4460156e-09   -8244.1284            0   -8244.1284    13557.666 
   58000 9.4885905e-10   -8244.1284            0   -8244.1284    13557.666 
   58100 5.1398996e-10   -8244.1284            0   -8244.1284    13557.666 
   58200 1.8419224e-09   -8244.1284            0   -8244.1284    13557.666 
   58300 7.8747894e-10   -8244.1284            0   -8244.1284    13557.666 
   58400 1.1798087e-09   -8244.1284            0   -8244.1284    13557.666 
   58500 1.6528956e-09   -8244.1284            0   -8244.1284    13557.666 
   58600 9.6523712e-10   -8244.1284            0   -8244.1284    13557.666 
   58700 1.8022166e-09   -8244.1284            0   -8244.1284    13557.666 
   58800 9.5650624e-10   -8244.1284            0   -8244.1284    13557.666 
   58900 1.3334465e-09   -8244.1284            0   -8244.1284    13557.666 
   59000 1.8512034e-09   -8244.1284            0   -8244.1284    13557.666 
   59100 4.1809329e-10   -8244.1284            0   -8244.1284    13557.666 
   59200 1.4869008e-09   -8244.1284            0   -8244.1284    13557.666 
   59300 1.3728713e-09   -8244.1284            0   -8244.1284    13557.666 
   59400 3.567951e-10   -8244.1284            0   -8244.1284    13557.666 
   59500 1.4760834e-09   -8244.1284            0   -8244.1284    13557.666 
   59600 6.2308484e-10   -8244.1284            0   -8244.1284    13557.666 
   59700 9.228148e-10   -8244.1284            0   -8244.1284    13557.666 
   59800 1.1697096e-09   -8244.1284            0   -8244.1284    13557.666 
   59900 4.2116716e-10   -8244.1284            0   -8244.1284    13557.666 
   60000 1.5146872e-09   -8244.1284            0   -8244.1284    13557.666 
   60100 8.6871229e-10   -8244.1284            0   -8244.1284    13557.666 
   60200 8.3603879e-10   -8244.1284            0   -8244.1284    13557.666 
   60300 1.8696297e-09   -8244.1284            0   -8244.1284    13557.666 
   60400 6.1880885e-10   -8244.1284            0   -8244.1284    13557.666 
   60500 1.568642e-09   -8244.1284            0   -8244.1284    13557.666 
   60600 1.7068591e-09   -8244.1284            0   -8244.1284    13557.666 
   60700   7.2127e-10   -8244.1284            0   -8244.1284    13557.666 
   60800 1.8666368e-09   -8244.1284            0   -8244.1284    13557.666 
   60900 1.1879053e-09   -8244.1284            0   -8244.1284    13557.666 
   61000 1.1694894e-09   -8244.1284            0   -8244.1284    13557.666 
   61100 1.4690119e-09   -8244.1284            0   -8244.1284    13557.666 
   61200 6.6552463e-10   -8244.1284            0   -8244.1284    13557.666 
   61300 1.6171276e-09   -8244.1284            0   -8244.1284    13557.666 
   61400 8.0372973e-10   -8244.1284            0   -8244.1284    13557.666 
   61500 4.5625462e-10   -8244.1284            0   -8244.1284    13557.666 
   61600 1.7663464e-09   -8244.1284            0   -8244.1284    13557.666 
   61700 3.3807539e-10   -8244.1284            0   -8244.1284    13557.666 
   61800 8.7426964e-10   -8244.1284            0   -8244.1284    13557.666 
   61900 1.3670648e-09   -8244.1284            0   -8244.1284    13557.666 
   62000 5.5124375e-10   -8244.1284            0   -8244.1284    13557.666 
   62100 1.4519027e-09   -8244.1284            0   -8244.1284    13557.666 
   62200 9.240461e-10   -8244.1284            0   -8244.1284    13557.666 
   62300 1.1264534e-09   -8244.1284            0   -8244.1284    13557.666 
   62400 1.8059745e-09   -8244.1284            0   -8244.1284    13557.666 
   62500 6.5145864e-10   -8244.1284            0   -8244.1284    13557.666 
   62600 1.8238201e-09   -8244.1284            0   -8244.1284    13557.666 
   62700 1.4692804e-09   -8244.1284            0   -8244.1284    13557.666 
   62800 8.0221101e-10   -8244.1284            0   -8244.1284    13557.666 
   62900 2.0481658e-09   -8244.1284            0   -8244.1284    13557.666 
   63000 8.6862617e-10   -8244.1284            0   -8244.1284    13557.666 
   63100 1.0711933e-09   -8244.1284            0   -8244.1284    13557.666 
   63200 1.6624856e-09   -8244.1284            0   -8244.1284    13557.666 
   63300 5.376302e-10   -8244.1284            0   -8244.1284    13557.666 
   63400 1.2892947e-09   -8244.1284            0   -8244.1284    13557.666 
   63500 8.637321e-10   -8244.1284            0   -8244.1284    13557.666 
   63600 7.7275718e-10   -8244.1284            0   -8244.1284    13557.666 
   63700 1.396948e-09   -8244.1284            0   -8244.1284    13557.666 
   63800 2.1272415e-10   -8244.1284            0   -8244.1284    13557.666 
   63900 1.3892766e-09   -8244.1284            0   -8244.1284    13557.666 
   64000 1.2903834e-09   -8244.1284            0   -8244.1284    13557.666 
   64100 3.5388305e-10   -8244.1284            0   -8244.1284    13557.666 
   64200 1.7531291e-09   -8244.1284            0   -8244.1284    13557.666 
   64300 1.1477708e-09   -8244.1284            0   -8244.1284    13557.666 
   64400 1.063096e-09   -8244.1284            0   -8244.1284    13557.666 
   64500 1.7260154e-09   -8244.1284            0   -8244.1284    13557.666 
   64600 9.3220549e-10   -8244.1284            0   -8244.1284    13557.666 
   64700 1.8726473e-09   -8244.1284            0   -8244.1284    13557.666 
   64800 1.1762423e-09   -8244.1284            0   -8244.1284    13557.666 
   64900 1.0256909e-09   -8244.1284            0   -8244.1284    13557.666 
   65000 1.9678521e-09   -8244.1284            0   -8244.1284    13557.666 
   65100 6.0562253e-10   -8244.1284            0   -8244.1284    13557.666 
   65200 1.2728191e-09   -8244.1284            0   -8244.1284    13557.666 
   65300 1.471675e-09   -8244.1284            0   -8244.1284    13557.666 
   65400 2.9132253e-10   -8244.1284            0   -8244.1284    13557.666 
   65500 1.5264436e-09   -8244.1284            0   -8244.1284    13557.666 
   65600 7.958458e-10   -8244.1284            0   -8244.1284    13557.666 
   65700 5.9892925e-10   -8244.1284            0   -8244.1284    13557.666 
   65800 1.4321574e-09   -8244.1284            0   -8244.1284    13557.666 
   65900 5.1257077e-10   -8244.1284            0   -8244.1284    13557.666 
   66000 1.3871903e-09   -8244.1284            0   -8244.1284    13557.666 
   66100 1.0269302e-09   -8244.1284            0   -8244.1284    13557.666 
   66200 7.8074813e-10   -8244.1284            0   -8244.1284    13557.666 
   66300  2.04179e-09   -8244.1284            0   -8244.1284    13557.666 
   66400 7.4307341e-10   -8244.1284            0   -8244.1284    13557.666 
   66500 1.2483577e-09   -8244.1284            0   -8244.1284    13557.666 
   66600 2.0973702e-09   -8244.1284            0   -8244.1284    13557.666 
   66700 7.3112902e-10   -8244.1284            0   -8244.1284    13557.666 
   66800 1.6802137e-09   -8244.1284            0   -8244.1284    13557.666 
   66900 1.3508564e-09   -8244.1284            0   -8244.1284    13557.666 
   67000 1.1097131e-09   -8244.1284            0   -8244.1284    13557.666 
   67100 1.6042167e-09   -8244.1284            0   -8244.1284    13557.666 
   67200 5.8345846e-10   -8244.1284            0   -8244.1284    13557.666 
   67300 1.4205899e-09   -8244.1284            0   -8244.1284    13557.666 
   67400 1.1862598e-09   -8244.1284            0   -8244.1284    13557.666 
   67500 2.8762968e-10   -8244.1284            0   -8244.1284    13557.666 
   67600 1.6335255e-09   -8244.1284            0   -8244.1284    13557.666 
   67700 5.9457776e-10   -8244.1284            0   -8244.1284    13557.666 
   67800 7.557541e-10   -8244.1284            0   -8244.1284    13557.666 
   67900 1.5469997e-09   -8244.1284            0   -8244.1284    13557.666 
   68000 4.6357946e-10   -8244.1284            0   -8244.1284    13557.666 
   68100 1.4338918e-09   -8244.1284            0   -8244.1284    13557.666 
   68200 1.2619512e-09   -8244.1284            0   -8244.1284    13557.666 
   68300 9.6261417e-10   -8244.1284            0   -8244.1284    13557.666 
   68400 1.7993384e-09   -8244.1284            0   -8244.1284    13557.666 
   68500 8.8095447e-10   -8244.1284            0   -8244.1284    13557.666 
   68600 1.7162329e-09   -8244.1284            0   -8244.1284    13557.666 
   68700 1.6682904e-09   -8244.1284            0   -8244.1284    13557.666 
   68800 6.0048402e-10   -8244.1284            0   -8244.1284    13557.666 
   68900 2.1230653e-09   -8244.1284            0   -8244.1284    13557.666 
   69000 1.1208954e-09   -8244.1284            0   -8244.1284    13557.666 
   69100 7.8014703e-10   -8244.1284            0   -8244.1284    13557.666 
   69200 1.6975503e-09   -8244.1284            0   -8244.1284    13557.666 
   69300 7.0119842e-10   -8244.1284            0   -8244.1284    13557.666 
   69400 1.1887745e-09   -8244.1284            0   -8244.1284    13557.666 
   69500 9.4278975e-10   -8244.1284            0   -8244.1284    13557.666 
   69600 5.8872295e-10   -8244.1284            0   -8244.1284    13557.666 
   69700 1.6321646e-09   -8244.1284            0   -8244.1284    13557.666 
   69800 3.2568048e-10   -8244.1284            0   -8244.1284    13557.666 
   69900 1.0809164e-09   -8244.1284            0   -8244.1284    13557.666 
   70000 1.5917249e-09   -8244.1284            0   -8244.1284    13557.666 
   70100 4.1426548e-10   -8244.1284            0   -8244.1284    13557.666 
   70200 1.7006185e-09   -8244.1284            0   -8244.1284    13557.666 
   70300 1.2819349e-09   -8244.1284            0   -8244.1284    13557.666 
   70400 9.5199449e-10   -8244.1284            0   -8244.1284    13557.666 
   70500 1.9884692e-09   -8244.1284            0   -8244.1284    13557.666 
   70600 9.5826085e-10   -8244.1284            0   -8244.1284    13557.666 
   70700 1.5991952e-09   -8244.1284            0   -8244.1284    13557.666 
   70800 1.551038e-09   -8244.1284            0   -8244.1284    13557.666 
   70900 9.0256116e-10   -8244.1284            0   -8244.1284    13557.666 
   71000 1.9484881e-09   -8244.1284            0   -8244.1284    13557.666 
   71100 6.8127551e-10   -8244.1284            0   -8244.1284    13557.666 
   71200 1.1028103e-09   -8244.1284            0   -8244.1284    13557.666 
   71300 1.7421397e-09   -8244.1284            0   -8244.1284    13557.666 
   71400 2.0731328e-10   -8244.1284            0   -8244.1284    13557.666 
   71500 1.2568503e-09   -8244.1284            0   -8244.1284    13557.666 
   71600 1.2201357e-09   -8244.1284            0   -8244.1284    13557.666 
   71700 4.5700563e-10   -8244.1284            0   -8244.1284    13557.666 
   71800 1.3969489e-09   -8244.1284            0   -8244.1284    13557.666 
   71900 6.2563135e-10   -8244.1284            0   -8244.1284    13557.666 
   72000 1.3632609e-09   -8244.1284            0   -8244.1284    13557.666 
   72100 1.2915687e-09   -8244.1284            0   -8244.1284    13557.666 
   72200 6.0529027e-10   -8244.1284            0   -8244.1284    13557.666 
   72300 2.0289466e-09   -8244.1284            0   -8244.1284    13557.666 
   72400 1.1326148e-09   -8244.1284            0   -8244.1284    13557.666 
   72500 1.0434172e-09   -8244.1284            0   -8244.1284    13557.666 
   72600 2.1125529e-09   -8244.1284            0   -8244.1284    13557.666 
   72700 8.6874585e-10   -8244.1284            0   -8244.1284    13557.666 
   72800 1.6398128e-09   -8244.1284            0   -8244.1284    13557.666 
   72900 1.5078687e-09   -8244.1284            0   -8244.1284    13557.666 
   73000 8.5804985e-10   -8244.1284            0   -8244.1284    13557.666 
   73100 1.7413153e-09   -8244.1284            0   -8244.1284    13557.666 
   73200 7.3289285e-10   -8244.1284            0   -8244.1284    13557.666 
   73300 1.1921891e-09   -8244.1284            0   -8244.1284    13557.666 
   73400 1.2828035e-09   -8244.1284            0   -8244.1284    13557.666 
   73500 3.0255772e-10   -8244.1284            0   -8244.1284    13557.666 
   73600 1.6414216e-09   -8244.1284            0   -8244.1284    13557.666 
   73700 7.6348103e-10   -8244.1284            0   -8244.1284    13557.666 
   73800 4.508104e-10   -8244.1284            0   -8244.1284    13557.666 
   73900 1.8605146e-09   -8244.1284            0   -8244.1284    13557.666 
   74000 5.8139489e-10   -8244.1284            0   -8244.1284    13557.666 
   74100 1.2081589e-09   -8244.1284            0   -8244.1284    13557.666 
   74200 1.483838e-09   -8244.1284            0   -8244.1284    13557.666 
   74300 9.9062435e-10   -8244.1284            0   -8244.1284    13557.666 
   74400 1.8821804e-09   -8244.1284            0   -8244.1284    13557.666 
   74500 9.5389291e-10   -8244.1284            0   -8244.1284    13557.666 
   74600 1.4769411e-09   -8244.1284            0   -8244.1284    13557.666 
   74700 2.0706887e-09   -8244.1284            0   -8244.1284    13557.666 
   74800 5.4767705e-10   -8244.1284            0   -8244.1284    13557.666 
   74900 1.8389562e-09   -8244.1284            0   -8244.1284    13557.666 
   75000 1.451262e-09   -8244.1284            0   -8244.1284    13557.666 
   75100 6.7511449e-10   -8244.1284            0   -8244.1284    13557.666 
   75200 1.7096155e-09   -8244.1284            0   -8244.1284    13557.666 
   75300 6.9877873e-10   -8244.1284            0   -8244.1284    13557.666 
   75400 1.0645139e-09   -8244.1284            0   -8244.1284    13557.666 
   75500 1.2452784e-09   -8244.1284            0   -8244.1284    13557.666 
   75600 4.4478567e-10   -8244.1284            0   -8244.1284    13557.666 
   75700 1.4936257e-09   -8244.1284            0   -8244.1284    13557.666 
   75800 6.7483796e-10   -8244.1284            0   -8244.1284    13557.666 
   75900 9.2441798e-10   -8244.1284            0   -8244.1284    13557.666 
   76000 1.7380842e-09   -8244.1284            0   -8244.1284    13557.666 
   76100 3.8852889e-10   -8244.1284            0   -8244.1284    13557.666 
   76200 1.6980693e-09   -8244.1284            0   -8244.1284    13557.666 
   76300 1.6089352e-09   -8244.1284            0   -8244.1284    13557.666 
   76400 7.560708e-10   -8244.1284            0   -8244.1284    13557.666 
   76500 1.9656105e-09   -8244.1284            0   -8244.1284    13557.666 
   76600 1.2733299e-09   -8244.1284            0   -8244.1284    13557.666 
   76700 1.4345592e-09   -8244.1284            0   -8244.1284    13557.666 
   76800 1.6514349e-09   -8244.1284            0   -8244.1284    13557.666 
   76900  7.95914e-10   -8244.1284            0   -8244.1284    13557.666 
   77000 2.0314972e-09   -8244.1284            0   -8244.1284    13557.666 
   77100 8.8631982e-10   -8244.1284            0   -8244.1284    13557.666 
   77200 7.2930533e-10   -8244.1284            0   -8244.1284    13557.666 
   77300 1.8994053e-09   -8244.1284            0   -8244.1284    13557.666 
   77400 4.1012204e-10   -8244.1284            0   -8244.1284    13557.666 
   77500 1.018677e-09   -8244.1284            0   -8244.1284    13557.666 
   77600 1.3353298e-09   -8244.1284            0   -8244.1284    13557.666 
   77700 4.3598011e-10   -8244.1284            0   -8244.1284    13557.666 
   77800 1.5105715e-09   -8244.1284            0   -8244.1284    13557.666 
   77900 7.5776328e-10   -8244.1284            0   -8244.1284    13557.666 
   78000 1.0780255e-09   -8244.1284            0   -8244.1284    13557.666 
   78100 1.6503101e-09   -8244.1284            0   -8244.1284    13557.666 
   78200 6.5257154e-10   -8244.1284            0   -8244.1284    13557.666 
   78300 1.9009202e-09   -8244.1284            0   -8244.1284    13557.666 
   78400 1.3230636e-09   -8244.1284            0   -8244.1284    13557.666 
   78500 9.8706464e-10   -8244.1284            0   -8244.1284    13557.666 
   78600 2.2650269e-09   -8244.1284            0   -8244.1284    13557.666 
   78700 9.2600196e-10   -8244.1284            0   -8244.1284    13557.666 
   78800 1.3493148e-09   -8244.1284            0   -8244.1284    13557.666 
   78900 1.8906458e-09   -8244.1284            0   -8244.1284    13557.666 
   79000 7.6491847e-10   -8244.1284            0   -8244.1284    13557.666 
   79100 1.6007292e-09   -8244.1284            0   -8244.1284    13557.666 
   79200 8.7212724e-10   -8244.1284            0   -8244.1284    13557.666 
   79300 1.103319e-09   -8244.1284            0   -8244.1284    13557.666 
   79400 1.4663018e-09   -8244.1284            0   -8244.1284    13557.666 
   79500 1.8141865e-10   -8244.1284            0   -8244.1284    13557.666 
   79600 1.4838802e-09   -8244.1284            0   -8244.1284    13557.666 
   79700 1.2136719e-09   -8244.1284            0   -8244.1284    13557.666 
   79800 2.5008918e-10   -8244.1284            0   -8244.1284    13557.666 
   79900 1.7807437e-09   -8244.1284            0   -8244.1284    13557.666 
   80000 8.6943191e-10   -8244.1284            0   -8244.1284    13557.666 
   80100 1.1298739e-09   -8244.1284            0   -8244.1284    13557.666 
   80200 1.6672358e-09   -8244.1284            0   -8244.1284    13557.666 
   80300 8.634508e-10   -8244.1284            0   -8244.1284    13557.666 
   80400 1.9484492e-09   -8244.1284            0   -8244.1284    13557.666 
   80500 1.2684461e-09   -8244.1284            0   -8244.1284    13557.666 
   80600 1.2203126e-09   -8244.1284            0   -8244.1284    13557.666 
   80700 2.1161311e-09   -8244.1284            0   -8244.1284    13557.666 
   80800  7.53601e-10   -8244.1284            0   -8244.1284    13557.666 
   80900 1.6792438e-09   -8244.1284            0   -8244.1284    13557.666 
   81000 1.6222994e-09   -8244.1284            0   -8244.1284    13557.666 
   81100 4.5310408e-10   -8244.1284            0   -8244.1284    13557.666 
   81200 1.8332161e-09   -8244.1284            0   -8244.1284    13557.666 
   81300 8.7631288e-10   -8244.1284            0   -8244.1284    13557.666 
   81400 7.7139394e-10   -8244.1284            0   -8244.1284    13557.666 
   81500 1.3740861e-09   -8244.1284            0   -8244.1284    13557.666 
   81600 5.6172078e-10   -8244.1284            0   -8244.1284    13557.666 
   81700 1.4257198e-09   -8244.1284            0   -8244.1284    13557.666 
   81800 8.2081956e-10   -8244.1284            0   -8244.1284    13557.666 
   81900 7.1445971e-10   -8244.1284            0   -8244.1284    13557.666 
   82000 2.0605944e-09   -8244.1284            0   -8244.1284    13557.666 
   82100 5.0149877e-10   -8244.1284            0   -8244.1284    13557.666 
   82200 1.3679958e-09   -8244.1284            0   -8244.1284    13557.666 
   82300 1.9755202e-09   -8244.1284            0   -8244.1284    13557.666 
   82400 8.0461838e-10   -8244.1284            0   -8244.1284    13557.666 
   82500 1.8801877e-09   -8244.1284            0   -8244.1284    13557.666 
   82600 1.3948806e-09   -8244.1284            0   -8244.1284    13557.666 
   82700 1.3133767e-09   -8244.1284            0   -8244.1284    13557.666 
   82800 1.9165658e-09   -8244.1284            0   -8244.1284    13557.666 
   82900 7.4064325e-10   -8244.1284            0   -8244.1284    13557.666 
   83000 1.7413621e-09   -8244.1284            0   -8244.1284    13557.666 
   83100 1.2977629e-09   -8244.1284            0   -8244.1284    13557.666 
   83200 5.6542395e-10   -8244.1284            0   -8244.1284    13557.666 
   83300 1.8406111e-09   -8244.1284            0   -8244.1284    13557.666 
   83400 5.1539527e-10   -8244.1284            0   -8244.1284    13557.666 
   83500 9.1763616e-10   -8244.1284            0   -8244.1284    13557.666 
   83600 1.5619016e-09   -8244.1284            0   -8244.1284    13557.666 
   83700 3.5515805e-10   -8244.1284            0   -8244.1284    13557.666 
   83800 1.3647467e-09   -8244.1284            0   -8244.1284    13557.666 
   83900 1.1556573e-09   -8244.1284            0   -8244.1284    13557.666 
   84000 9.3946802e-10   -8244.1284            0   -8244.1284    13557.666 
   84100 1.7023245e-09   -8244.1284            0   -8244.1284    13557.666 
   84200 7.1764816e-10   -8244.1284            0   -8244.1284    13557.666 
   84300 1.9358275e-09   -8244.1284            0   -8244.1284    13557.666 
   84400 1.5776915e-09   -8244.1284            0   -8244.1284    13557.666 
   84500 7.4085519e-10   -8244.1284            0   -8244.1284    13557.666 
   84600 2.3251529e-09   -8244.1284            0   -8244.1284    13557.666 
   84700 1.2535478e-09   -8244.1284            0   -8244.1284    13557.666 
   84800 1.0858938e-09   -8244.1284            0   -8244.1284    13557.666 
   84900 1.9450264e-09   -8244.1284            0   -8244.1284    13557.666 
   85000 8.1197389e-10   -8244.1284            0   -8244.1284    13557.666 
   85100 1.6040537e-09   -8244.1284            0   -8244.1284    13557.666 
   85200 1.0097446e-09   -8244.1284            0   -8244.1284    13557.666 
   85300 7.6067498e-10   -8244.1284            0   -8244.1284    13557.666 
   85400 1.736346e-09   -8244.1284            0   -8244.1284    13557.666 
   85500 3.1502307e-10   -8244.1284            0   -8244.1284    13557.666 
   85600 1.1839205e-09   -8244.1284            0   -8244.1284    13557.666 
   85700 1.4389958e-09   -8244.1284            0   -8244.1284    13557.666 
   85800 2.872835e-10   -8244.1284            0   -8244.1284    13557.666 
   85900 1.7779064e-09   -8244.1284            0   -8244.1284    13557.666 
   86000 1.0764433e-09   -8244.1284            0   -8244.1284    13557.666 
   86100 8.5176244e-10   -8244.1284            0   -8244.1284    13557.666 
   86200 2.034072e-09   -8244.1284            0   -8244.1284    13557.666 
   86300 9.3393373e-10   -8244.1284            0   -8244.1284    13557.666 
   86400 1.7188413e-09   -8244.1284            0   -8244.1284    13557.666 
   86500 1.5307171e-09   -8244.1284            0   -8244.1284    13557.666 
   86600 1.2022542e-09   -8244.1284            0   -8244.1284    13557.666 
   86700 2.1603694e-09   -8244.1284            0   -8244.1284    13557.666 
   86800 8.1439344e-10   -8244.1284            0   -8244.1284    13557.666 
   86900 1.4217926e-09   -8244.1284            0   -8244.1284    13557.666 
   87000 2.0055295e-09   -8244.1284            0   -8244.1284    13557.666 
   87100 3.5651115e-10   -8244.1284            0   -8244.1284    13557.666 
   87200 1.5641235e-09   -8244.1284            0   -8244.1284    13557.666 
   87300 1.1899542e-09   -8244.1284            0   -8244.1284    13557.666 
   87400 6.9096211e-10   -8244.1284            0   -8244.1284    13557.666 
   87500 1.4078805e-09   -8244.1284            0   -8244.1284    13557.666 
   87600 5.2442653e-10   -8244.1284            0   -8244.1284    13557.666 
   87700 1.3959941e-09   -8244.1284            0   -8244.1284    13557.666 
   87800 1.1679508e-09   -8244.1284            0   -8244.1284    13557.666 
   87900 5.1158449e-10   -8244.1284            0   -8244.1284    13557.666 
   88000 2.0109294e-09   -8244.1284            0   -8244.1284    13557.666 
   88100 8.9291602e-10   -8244.1284            0   -8244.1284    13557.666 
   88200 1.1904294e-09   -8244.1284            0   -8244.1284    13557.666 
   88300 2.1224637e-09   -8244.1284            0   -8244.1284    13557.666 
   88400 7.7231848e-10   -8244.1284            0   -8244.1284    13557.666 
   88500 1.9291977e-09   -8244.1284            0   -8244.1284    13557.666 
   88600 1.6435298e-09   -8244.1284            0   -8244.1284    13557.666 
   88700 1.0601621e-09   -8244.1284            0   -8244.1284    13557.666 
   88800 1.9639548e-09   -8244.1284            0   -8244.1284    13557.666 
   88900 9.805686e-10   -8244.1284            0   -8244.1284    13557.666 
   89000 1.5244093e-09   -8244.1284            0   -8244.1284    13557.666 
   89100 1.4304986e-09   -8244.1284            0   -8244.1284    13557.666 
   89200 4.1839286e-10   -8244.1284            0   -8244.1284    13557.666 
   89300 1.9576363e-09   -8244.1284            0   -8244.1284    13557.666 
   89400 6.9329368e-10   -8244.1284            0   -8244.1284    13557.666 
   89500 5.5664998e-10   -8244.1284            0   -8244.1284    13557.666 
   89600 1.7957008e-09   -8244.1284            0   -8244.1284    13557.666 
   89700 5.3471147e-10   -8244.1284            0   -8244.1284    13557.666 
   89800 1.1777285e-09   -8244.1284            0   -8244.1284    13557.666 
   89900 1.3096016e-09   -8244.1284            0   -8244.1284    13557.666 
   90000 9.0405884e-10   -8244.1284            0   -8244.1284    13557.666 
   90100 1.9211669e-09   -8244.1284            0   -8244.1284    13557.666 
   90200 7.9335597e-10   -8244.1284            0   -8244.1284    13557.666 
   90300 1.6286924e-09   -8244.1284            0   -8244.1284    13557.666 
   90400 2.0417833e-09   -8244.1284            0   -8244.1284    13557.666 
   90500 7.0209085e-10   -8244.1284            0   -8244.1284    13557.666 
   90600 2.152164e-09   -8244.1284            0   -8244.1284    13557.666 
   90700 1.4749748e-09   -8244.1284            0   -8244.1284    13557.666 
   90800 9.917852e-10   -8244.1284            0   -8244.1284    13557.666 
   90900 2.073205e-09   -8244.1284            0   -8244.1284    13557.666 
   91000 8.0532076e-10   -8244.1284            0   -8244.1284    13557.666 
   91100 1.3305153e-09   -8244.1284            0   -8244.1284    13557.666 
   91200 1.4330139e-09   -8244.1284            0   -8244.1284    13557.666 
   91300 5.7740424e-10   -8244.1284            0   -8244.1284    13557.666 
   91400 1.6336332e-09   -8244.1284            0   -8244.1284    13557.666 
   91500 5.1908797e-10   -8244.1284            0   -8244.1284    13557.666 
   91600 1.0831685e-09   -8244.1284            0   -8244.1284    13557.666 
   91700 1.6387255e-09   -8244.1284            0   -8244.1284    13557.666 
   91800 2.1406013e-10   -8244.1284            0   -8244.1284    13557.666 
   91900 1.6672397e-09   -8244.1284            0   -8244.1284    13557.666 
   92000 1.535609e-09   -8244.1284            0   -8244.1284    13557.666 
   92100 6.6294173e-10   -8244.1284            0   -8244.1284    13557.666 
   92200 1.9924893e-09   -8244.1284            0   -8244.1284    13557.666 
   92300 1.1939161e-09   -8244.1284            0   -8244.1284    13557.666 
   92400 1.6783433e-09   -8244.1284            0   -8244.1284    13557.666 
   92500 1.6793224e-09   -8244.1284            0   -8244.1284    13557.666 
   92600 1.0077038e-09   -8244.1284            0   -8244.1284    13557.666 
   92700 2.2888838e-09   -8244.1284            0   -8244.1284    13557.666 
   92800 1.0699536e-09   -8244.1284            0   -8244.1284    13557.666 
   92900 1.0870164e-09   -8244.1284            0   -8244.1284    13557.666 
   93000 2.0916859e-09   -8244.1284            0   -8244.1284    13557.666 
   93100 5.3054325e-10   -8244.1284            0   -8244.1284    13557.666 
   93200 1.4043497e-09   -8244.1284            0   -8244.1284    13557.666 
   93300 1.3351065e-09   -8244.1284            0   -8244.1284    13557.666 
   93400 4.6690479e-10   -8244.1284            0   -8244.1284    13557.666 
   93500 1.6462944e-09   -8244.1284            0   -8244.1284    13557.666 
   93600 6.3513084e-10   -8244.1284            0   -8244.1284    13557.666 
   93700 1.1100477e-09   -8244.1284            0   -8244.1284    13557.666 
   93800 1.4387995e-09   -8244.1284            0   -8244.1284    13557.666 
   93900 5.9243677e-10   -8244.1284            0   -8244.1284    13557.666 
   94000 1.9447459e-09   -8244.1284            0   -8244.1284    13557.666 
   94100 1.1080387e-09   -8244.1284            0   -8244.1284    13557.666 
   94200 9.7248143e-10   -8244.1284            0   -8244.1284    13557.666 
   94300 2.4660796e-09   -8244.1284            0   -8244.1284    13557.666 
   94400 8.4434007e-10   -8244.1284            0   -8244.1284    13557.666 
   94500 1.6029669e-09   -8244.1284            0   -8244.1284    13557.666 
   94600 2.0082517e-09   -8244.1284            0   -8244.1284    13557.666 
   94700 1.0552683e-09   -8244.1284            0   -8244.1284    13557.666 
   94800 1.8697438e-09   -8244.1284            0   -8244.1284    13557.666 
   94900 1.0549955e-09   -8244.1284            0   -8244.1284    13557.666 
   95000 1.3952807e-09   -8244.1284            0   -8244.1284    13557.666 
   95100 1.7159976e-09   -8244.1284            0   -8244.1284    13557.666 
   95200 2.8377208e-10   -8244.1284            0   -8244.1284    13557.666 
   95300 1.7067973e-09   -8244.1284            0   -8244.1284    13557.666 
   95400 1.1438786e-09   -8244.1284            0   -8244.1284    13557.666 
   95500 3.7742212e-10   -8244.1284            0   -8244.1284    13557.666 
   95600 1.7721304e-09   -8244.1284            0   -8244.1284    13557.666 
   95700 6.437706e-10   -8244.1284            0   -8244.1284    13557.666 
   95800 1.1727326e-09   -8244.1284            0   -8244.1284    13557.666 
   95900 1.5506811e-09   -8244.1284            0   -8244.1284    13557.666 
   96000 7.5499344e-10   -8244.1284            0   -8244.1284    13557.666 
   96100 1.9138966e-09   -8244.1284            0   -8244.1284    13557.666 
   96200 1.1977814e-09   -8244.1284            0   -8244.1284    13557.666 
   96300 1.3859497e-09   -8244.1284            0   -8244.1284    13557.666 
   96400 2.1794102e-09   -8244.1284            0   -8244.1284    13557.666 
   96500 7.3983546e-10   -8244.1284            0   -8244.1284    13557.666 
   96600 2.1438505e-09   -8244.1284            0   -8244.1284    13557.666 
   96700 1.7175317e-09   -8244.1284            0   -8244.1284    13557.666 
   96800 6.900476e-10   -8244.1284            0   -8244.1284    13557.666 
   96900 2.1548641e-09   -8244.1284            0   -8244.1284    13557.666 
   97000 1.0981623e-09   -8244.1284            0   -8244.1284    13557.666 
   97100 1.0082524e-09   -8244.1284            0   -8244.1284    13557.666 
   97200 1.5375455e-09   -8244.1284            0   -8244.1284    13557.666 
   97300 6.0393733e-10   -8244.1284            0   -8244.1284    13557.666 
   97400 1.6531031e-09   -8244.1284            0   -8244.1284    13557.666 
   97500 6.8105364e-10   -8244.1284            0   -8244.1284    13557.666 
   97600 7.4230018e-10   -8244.1284            0   -8244.1284    13557.666 
   97700 1.978064e-09   -8244.1284            0   -8244.1284    13557.666 
   97800 3.7743461e-10   -8244.1284            0   -8244.1284    13557.666 
   97900 1.3640139e-09   -8244.1284            0   -8244.1284    13557.666 
   98000 1.794234e-09   -8244.1284            0   -8244.1284    13557.666 
   98100 7.5677022e-10   -8244.1284            0   -8244.1284    13557.666 
   98200 1.9964478e-09   -8244.1284            0   -8244.1284    13557.666 
   98300 1.3278559e-09   -8244.1284            0   -8244.1284    13557.666 
   98400 1.4570204e-09   -8244.1284            0   -8244.1284    13557.666 
   98500 2.075718e-09   -8244.1284            0   -8244.1284    13557.666 
   98600 9.4468423e-10   -8244.1284            0   -8244.1284    13557.666 
   98700 2.0837382e-09   -8244.1284            0   -8244.1284    13557.666 
   98800 1.3389668e-09   -8244.1284            0   -8244.1284    13557.666 
   98900 1.005017e-09   -8244.1284            0   -8244.1284    13557.666 
   99000 2.1242532e-09   -8244.1284            0   -8244.1284    13557.666 
   99100 5.5190568e-10   -8244.1284            0   -8244.1284    13557.666 
   99200 1.1894757e-09   -8244.1284            0   -8244.1284    13557.666 
   99300 1.7264885e-09   -8244.1284            0   -8244.1284    13557.666 
   99400 2.9904902e-10   -8244.1284            0   -8244.1284    13557.666 
   99500 1.4905208e-09   -8244.1284            0   -8244.1284    13557.666 
   99600 9.5715401e-10   -8244.1284            0   -8244.1284    13557.666 
   99700 1.0181904e-09   -8244.1284            0   -8244.1284    13557.666 
   99800 1.5645651e-09   -8244.1284            0   -8244.1284    13557.666 
   99900 5.3341096e-10   -8244.1284            0   -8244.1284    13557.666 
  100000 1.9651455e-09   -8244.1284            0   -8244.1284    13557.666 
  100001 1.9906021e-09   -8244.1284            0   -8244.1284    13557.666 
Loop time of 340.729 on 1 procs for 100000 steps with 2000 atoms

Performance: 25.357 ns/day, 0.946 hours/ns, 293.488 timesteps/s
89.4% CPU use with 1 MPI tasks x no OpenMP threads

MPI task timing breakdown:
Section |  min time  |  avg time  |  max time  |%varavg| %total
---------------------------------------------------------------
Pair    | 326.78     | 326.78     | 326.78     |   0.0 | 95.91
Neigh   | 0          | 0          | 0          |   0.0 |  0.00
Comm    | 1.7846     | 1.7846     | 1.7846     |   0.0 |  0.52
Output  | 6.9285     | 6.9285     | 6.9285     |   0.0 |  2.03
Modify  | 4.1127     | 4.1127     | 4.1127     |   0.0 |  1.21
Other   |            | 1.119      |            |       |  0.33

Nlocal:    2000 ave 2000 max 2000 min
Histogram: 1 0 0 0 0 0 0 0 0 0
Nghost:    2941 ave 2941 max 2941 min
Histogram: 1 0 0 0 0 0 0 0 0 0
Neighs:    58000 ave 58000 max 58000 min
Histogram: 1 0 0 0 0 0 0 0 0 0

Total # of neighbors = 58000
Ave neighs/atom = 29
Neighbor list builds = 0
Dangerous builds = 0
Total wall time: 0:05:40
