ITEM: TIMESTEP
0
ITEM: NUMBER OF ATOMS
5660
ITEM: BOX BOUNDS pp pp pp
0.0000000000000000e+00 2.2643899999999999e+01
0.0000000000000000e+00 2.2643899999999999e+01
0.0000000000000000e+00 1.2077340000000000e+02
ITEM: ATOMS id type x y z 
6 1 1.50967 3.01911 1.73551 
8 1 3.01911 1.50967 1.28986 
10 1 0 0 3.79953 
12 1 3.01911 1.50967 4.24519 
14 1 0 0 6.75486 
16 1 1.50967 3.01911 6.30799 
18 1 3.01911 1.50967 8.81767 
55 1 6.03845 3.01911 1.73551 
57 1 7.54789 1.50967 1.28986 
59 1 4.52878 0 3.79953 
61 1 7.54789 1.50967 4.24519 
63 1 4.52878 0 6.75486 
65 1 6.03845 3.01911 6.30799 
67 1 7.54789 1.50967 8.81767 
104 1 10.5672 3.01911 1.73551 
108 1 9.05756 0 3.79953 
112 1 9.05756 0 6.75486 
114 1 10.5672 3.01911 6.30799 
251 1 1.50967 7.54789 1.73551 
253 1 3.01911 6.03845 1.28986 
255 1 0 4.52878 3.79953 
257 1 3.01911 6.03845 4.24519 
259 1 0 4.52878 6.75486 
261 1 1.50967 7.54789 6.30799 
263 1 3.01911 6.03845 8.81767 
300 1 6.03845 7.54789 1.73551 
302 1 7.54789 6.03845 1.28986 
304 1 4.52878 4.52878 3.79953 
306 1 7.54789 6.03845 4.24519 
308 1 4.52878 4.52878 6.75486 
310 1 6.03845 7.54789 6.30799 
312 1 7.54789 6.03845 8.81767 
349 1 10.5672 7.54789 1.73551 
353 1 9.05756 4.52878 3.79953 
357 1 9.05756 4.52878 6.75486 
359 1 10.5672 7.54789 6.30799 
498 1 3.01911 10.5672 1.28986 
500 1 0 9.05756 3.79953 
502 1 3.01911 10.5672 4.24519 
504 1 0 9.05756 6.75486 
508 1 3.01911 10.5672 8.81767 
547 1 7.54789 10.5672 1.28986 
549 1 4.52878 9.05756 3.79953 
551 1 7.54789 10.5672 4.24519 
553 1 4.52878 9.05756 6.75486 
557 1 7.54789 10.5672 8.81767 
598 1 9.05756 9.05756 3.79953 
602 1 9.05756 9.05756 6.75486 
1226 1 1.50967 3.01911 9.26332 
1271 1 6.03845 3.01911 9.26332 
1316 1 10.5672 3.01911 9.26332 
1451 1 1.50967 7.54789 9.26332 
1496 1 6.03845 7.54789 9.26332 
1541 1 10.5672 7.54789 9.26332 
26 3 4.39495 1.50967 2.76813 
28 3 3.01911 2.88551 2.76813 
30 3 1.64327 0.133825 2.76813 
38 3 2.88551 3.01911 7.78626 
40 3 1.50967 4.39495 7.78626 
42 3 0.133825 1.64327 7.78626 
44 3 3.15294 0 5.27659 
46 3 0 3.15294 5.27659 
48 3 1.37584 1.37584 5.27659 
75 3 8.92373 1.50967 2.76813 
77 3 7.54789 2.88551 2.76813 
79 3 6.17205 0.133825 2.76813 
87 3 7.41429 3.01911 7.78626 
89 3 6.03845 4.39495 7.78626 
91 3 4.66261 1.64327 7.78626 
93 3 7.68172 0 5.27659 
95 3 4.52878 3.15294 5.27659 
97 3 5.90462 1.37584 5.27659 
128 3 10.7008 0.133825 2.76813 
138 3 10.5672 4.39495 7.78626 
140 3 9.19139 1.64327 7.78626 
144 3 9.05756 3.15294 5.27659 
146 3 10.4334 1.37584 5.27659 
271 3 4.39495 6.03845 2.76813 
273 3 3.01911 7.41429 2.76813 
275 3 1.64327 4.66261 2.76813 
283 3 2.88551 7.54789 7.78626 
285 3 1.50967 8.92373 7.78626 
287 3 0.133825 6.17205 7.78626 
289 3 3.15294 4.52878 5.27659 
291 3 0 7.68172 5.27659 
293 3 1.37584 5.90462 5.27659 
320 3 8.92373 6.03845 2.76813 
322 3 7.54789 7.41429 2.76813 
324 3 6.17205 4.66261 2.76813 
332 3 7.41429 7.54789 7.78626 
334 3 6.03845 8.92373 7.78626 
336 3 4.66261 6.17205 7.78626 
338 3 7.68172 4.52878 5.27659 
340 3 4.52878 7.68172 5.27659 
342 3 5.90462 5.90462 5.27659 
373 3 10.7008 4.66261 2.76813 
383 3 10.5672 8.92373 7.78626 
385 3 9.19139 6.17205 7.78626 
389 3 9.05756 7.68172 5.27659 
391 3 10.4334 5.90462 5.27659 
516 3 4.39495 10.5672 2.76813 
520 3 1.64327 9.19139 2.76813 
532 3 0.133825 10.7008 7.78626 
534 3 3.15294 9.05756 5.27659 
538 3 1.37584 10.4334 5.27659 
565 3 8.92373 10.5672 2.76813 
569 3 6.17205 9.19139 2.76813 
581 3 4.66261 10.7008 7.78626 
583 3 7.68172 9.05756 5.27659 
587 3 5.90462 10.4334 5.27659 
618 3 10.7008 9.19139 2.76813 
630 3 9.19139 10.7008 7.78626 
636 3 10.4334 10.4334 5.27659 
1228 1 3.01911 1.50967 11.773 
1230 1 0 0 11.3261 
1232 1 1.50967 3.01911 13.8358 
1234 1 0 0 14.2815 
1236 1 1.50967 3.01911 16.7911 
1237 1 3.01911 1.50967 16.3443 
1239 1 0 0 18.8539 
1240 1 3.01911 1.50967 19.2996 
1273 1 7.54789 1.50967 11.773 
1275 1 4.52878 0 11.3261 
1277 1 6.03845 3.01911 13.8358 
1279 1 4.52878 0 14.2815 
1281 1 6.03845 3.01911 16.7911 
1282 1 7.54789 1.50967 16.3443 
1284 1 4.52878 0 18.8539 
1285 1 7.54789 1.50967 19.2996 
1320 1 9.05756 0 11.3261 
1322 1 10.5672 3.01911 13.8358 
1324 1 9.05756 0 14.2815 
1326 1 10.5672 3.01911 16.7911 
1329 1 9.05756 0 18.8539 
1453 1 3.01911 6.03845 11.773 
1455 1 0 4.52878 11.3261 
1457 1 1.50967 7.54789 13.8358 
1459 1 0 4.52878 14.2815 
1461 1 1.50967 7.54789 16.7911 
1462 1 3.01911 6.03845 16.3443 
1464 1 0 4.52878 18.8539 
1465 1 3.01911 6.03845 19.2996 
1498 1 7.54789 6.03845 11.773 
1500 1 4.52878 4.52878 11.3261 
1502 1 6.03845 7.54789 13.8358 
1504 1 4.52878 4.52878 14.2815 
1506 1 6.03845 7.54789 16.7911 
1507 1 7.54789 6.03845 16.3443 
1509 1 4.52878 4.52878 18.8539 
1510 1 7.54789 6.03845 19.2996 
1545 1 9.05756 4.52878 11.3261 
1547 1 10.5672 7.54789 13.8358 
1549 1 9.05756 4.52878 14.2815 
1551 1 10.5672 7.54789 16.7911 
1554 1 9.05756 4.52878 18.8539 
1678 1 3.01911 10.5672 11.773 
1680 1 0 9.05756 11.3261 
1684 1 0 9.05756 14.2815 
1687 1 3.01911 10.5672 16.3443 
1689 1 0 9.05756 18.8539 
1690 1 3.01911 10.5672 19.2996 
1723 1 7.54789 10.5672 11.773 
1725 1 4.52878 9.05756 11.3261 
1729 1 4.52878 9.05756 14.2815 
1732 1 7.54789 10.5672 16.3443 
1734 1 4.52878 9.05756 18.8539 
1735 1 7.54789 10.5672 19.2996 
1770 1 9.05756 9.05756 11.3261 
1774 1 9.05756 9.05756 14.2815 
1779 1 9.05756 9.05756 18.8539 
1244 3 1.37584 0 12.8044 
1246 3 0 1.37584 12.8044 
1248 3 3.15294 3.15294 12.8044 
1250 3 1.64327 1.50967 10.2947 
1252 3 3.01911 0.133825 10.2947 
1254 3 4.39495 2.88551 10.2947 
1256 3 4.39495 1.50967 17.8225 
1257 3 3.01911 2.88551 17.8225 
1258 3 1.64327 0.133825 17.8225 
1259 3 0.133825 3.01911 15.3129 
1261 3 1.50967 1.64327 15.3129 
1263 3 2.88551 4.39495 15.3129 
1289 3 5.90462 0 12.8044 
1291 3 4.52878 1.37584 12.8044 
1293 3 7.68172 3.15294 12.8044 
1295 3 6.17205 1.50967 10.2947 
1297 3 7.54789 0.133825 10.2947 
1299 3 8.92373 2.88551 10.2947 
1301 3 8.92373 1.50967 17.8225 
1302 3 7.54789 2.88551 17.8225 
1303 3 6.17205 0.133825 17.8225 
1304 3 4.66261 3.01911 15.3129 
1306 3 6.03845 1.64327 15.3129 
1308 3 7.41429 4.39495 15.3129 
1334 3 10.4334 0 12.8044 
1336 3 9.05756 1.37584 12.8044 
1340 3 10.7008 1.50967 10.2947 
1348 3 10.7008 0.133825 17.8225 
1349 3 9.19139 3.01911 15.3129 
1351 3 10.5672 1.64327 15.3129 
1469 3 1.37584 4.52878 12.8044 
1471 3 0 5.90462 12.8044 
1473 3 3.15294 7.68172 12.8044 
1475 3 1.64327 6.03845 10.2947 
1477 3 3.01911 4.66261 10.2947 
1479 3 4.39495 7.41429 10.2947 
1481 3 4.39495 6.03845 17.8225 
1482 3 3.01911 7.41429 17.8225 
1483 3 1.64327 4.66261 17.8225 
1484 3 0.133825 7.54789 15.3129 
1486 3 1.50967 6.17205 15.3129 
1488 3 2.88551 8.92373 15.3129 
1514 3 5.90462 4.52878 12.8044 
1516 3 4.52878 5.90462 12.8044 
1518 3 7.68172 7.68172 12.8044 
1520 3 6.17205 6.03845 10.2947 
1522 3 7.54789 4.66261 10.2947 
1524 3 8.92373 7.41429 10.2947 
1526 3 8.92373 6.03845 17.8225 
1527 3 7.54789 7.41429 17.8225 
1528 3 6.17205 4.66261 17.8225 
1529 3 4.66261 7.54789 15.3129 
1531 3 6.03845 6.17205 15.3129 
1533 3 7.41429 8.92373 15.3129 
1559 3 10.4334 4.52878 12.8044 
1561 3 9.05756 5.90462 12.8044 
1565 3 10.7008 6.03845 10.2947 
1573 3 10.7008 4.66261 17.8225 
1574 3 9.19139 7.54789 15.3129 
1576 3 10.5672 6.17205 15.3129 
1694 3 1.37584 9.05756 12.8044 
1696 3 0 10.4334 12.8044 
1700 3 1.64327 10.5672 10.2947 
1702 3 3.01911 9.19139 10.2947 
1706 3 4.39495 10.5672 17.8225 
1708 3 1.64327 9.19139 17.8225 
1711 3 1.50967 10.7008 15.3129 
1739 3 5.90462 9.05756 12.8044 
1741 3 4.52878 10.4334 12.8044 
1745 3 6.17205 10.5672 10.2947 
1747 3 7.54789 9.19139 10.2947 
1751 3 8.92373 10.5672 17.8225 
1753 3 6.17205 9.19139 17.8225 
1756 3 6.03845 10.7008 15.3129 
1784 3 10.4334 9.05756 12.8044 
1786 3 9.05756 10.4334 12.8044 
1790 3 10.7008 10.5672 10.2947 
1798 3 10.7008 9.19139 17.8225 
1801 3 10.5672 10.7008 15.3129 
1241 1 0 0 21.8093 
1242 1 1.50967 3.01911 21.3624 
1243 1 3.01911 1.50967 23.8721 
1286 1 4.52878 0 21.8093 
1287 1 6.03845 3.01911 21.3624 
1288 1 7.54789 1.50967 23.8721 
1331 1 9.05756 0 21.8093 
1332 1 10.5672 3.01911 21.3624 
1466 1 0 4.52878 21.8093 
1467 1 1.50967 7.54789 21.3624 
1468 1 3.01911 6.03845 23.8721 
1511 1 4.52878 4.52878 21.8093 
1512 1 6.03845 7.54789 21.3624 
1513 1 7.54789 6.03845 23.8721 
1556 1 9.05756 4.52878 21.8093 
1557 1 10.5672 7.54789 21.3624 
1691 1 0 9.05756 21.8093 
1693 1 3.01911 10.5672 23.8721 
1736 1 4.52878 9.05756 21.8093 
1738 1 7.54789 10.5672 23.8721 
1781 1 9.05756 9.05756 21.8093 
2351 1 1.50967 3.01911 24.3177 
2352 1 3.01911 1.50967 26.8274 
2353 1 0 0 26.3817 
2354 1 1.50967 3.01911 28.8902 
2355 1 0 0 29.3359 
2381 1 6.03845 3.01911 24.3177 
2382 1 7.54789 1.50967 26.8274 
2383 1 4.52878 0 26.3817 
2384 1 6.03845 3.01911 28.8902 
2385 1 4.52878 0 29.3359 
2411 1 10.5672 3.01911 24.3177 
2413 1 9.05756 0 26.3817 
2414 1 10.5672 3.01911 28.8902 
2415 1 9.05756 0 29.3359 
2501 1 1.50967 7.54789 24.3177 
2502 1 3.01911 6.03845 26.8274 
2503 1 0 4.52878 26.3817 
2504 1 1.50967 7.54789 28.8902 
2505 1 0 4.52878 29.3359 
2531 1 6.03845 7.54789 24.3177 
2532 1 7.54789 6.03845 26.8274 
2533 1 4.52878 4.52878 26.3817 
2534 1 6.03845 7.54789 28.8902 
2535 1 4.52878 4.52878 29.3359 
2561 1 10.5672 7.54789 24.3177 
2563 1 9.05756 4.52878 26.3817 
2564 1 10.5672 7.54789 28.8902 
2565 1 9.05756 4.52878 29.3359 
2652 1 3.01911 10.5672 26.8274 
2653 1 0 9.05756 26.3817 
2655 1 0 9.05756 29.3359 
2682 1 7.54789 10.5672 26.8274 
2683 1 4.52878 9.05756 26.3817 
2685 1 4.52878 9.05756 29.3359 
2713 1 9.05756 9.05756 26.3817 
2715 1 9.05756 9.05756 29.3359 
1265 3 2.88551 3.01911 22.8407 
1266 3 1.50967 4.39495 22.8407 
1267 3 0.133825 1.64327 22.8407 
1268 3 3.15294 0 20.331 
1269 3 0 3.15294 20.331 
1270 3 1.37584 1.37584 20.331 
1310 3 7.41429 3.01911 22.8407 
1311 3 6.03845 4.39495 22.8407 
1312 3 4.66261 1.64327 22.8407 
1313 3 7.68172 0 20.331 
1314 3 4.52878 3.15294 20.331 
1315 3 5.90462 1.37584 20.331 
1356 3 10.5672 4.39495 22.8407 
1357 3 9.19139 1.64327 22.8407 
1359 3 9.05756 3.15294 20.331 
1360 3 10.4334 1.37584 20.331 
1490 3 2.88551 7.54789 22.8407 
1491 3 1.50967 8.92373 22.8407 
1492 3 0.133825 6.17205 22.8407 
1493 3 3.15294 4.52878 20.331 
1494 3 0 7.68172 20.331 
1495 3 1.37584 5.90462 20.331 
1535 3 7.41429 7.54789 22.8407 
1536 3 6.03845 8.92373 22.8407 
1537 3 4.66261 6.17205 22.8407 
1538 3 7.68172 4.52878 20.331 
1539 3 4.52878 7.68172 20.331 
1540 3 5.90462 5.90462 20.331 
1581 3 10.5672 8.92373 22.8407 
1582 3 9.19139 6.17205 22.8407 
1584 3 9.05756 7.68172 20.331 
1585 3 10.4334 5.90462 20.331 
1717 3 0.133825 10.7008 22.8407 
1718 3 3.15294 9.05756 20.331 
1720 3 1.37584 10.4334 20.331 
1762 3 4.66261 10.7008 22.8407 
1763 3 7.68172 9.05756 20.331 
1765 3 5.90462 10.4334 20.331 
1807 3 9.19139 10.7008 22.8407 
1810 3 10.4334 10.4334 20.331 
2363 3 1.37584 0 27.8588 
2364 3 0 1.37584 27.8588 
2365 3 3.15294 3.15294 27.8588 
2366 3 1.64327 1.50967 25.3491 
2367 3 3.01911 0.133825 25.3491 
2368 3 4.39495 2.88551 25.3491 
2393 3 5.90462 0 27.8588 
2394 3 4.52878 1.37584 27.8588 
2395 3 7.68172 3.15294 27.8588 
2396 3 6.17205 1.50967 25.3491 
2397 3 7.54789 0.133825 25.3491 
2398 3 8.92373 2.88551 25.3491 
2423 3 10.4334 0 27.8588 
2424 3 9.05756 1.37584 27.8588 
2426 3 10.7008 1.50967 25.3491 
2513 3 1.37584 4.52878 27.8588 
2514 3 0 5.90462 27.8588 
2515 3 3.15294 7.68172 27.8588 
2516 3 1.64327 6.03845 25.3491 
2517 3 3.01911 4.66261 25.3491 
2518 3 4.39495 7.41429 25.3491 
2543 3 5.90462 4.52878 27.8588 
2544 3 4.52878 5.90462 27.8588 
2545 3 7.68172 7.68172 27.8588 
2546 3 6.17205 6.03845 25.3491 
2547 3 7.54789 4.66261 25.3491 
2548 3 8.92373 7.41429 25.3491 
2573 3 10.4334 4.52878 27.8588 
2574 3 9.05756 5.90462 27.8588 
2576 3 10.7008 6.03845 25.3491 
2663 3 1.37584 9.05756 27.8588 
2664 3 0 10.4334 27.8588 
2666 3 1.64327 10.5672 25.3491 
2667 3 3.01911 9.19139 25.3491 
2693 3 5.90462 9.05756 27.8588 
2694 3 4.52878 10.4334 27.8588 
2696 3 6.17205 10.5672 25.3491 
2697 3 7.54789 9.19139 25.3491 
2723 3 10.4334 9.05756 27.8588 
2724 3 9.05756 10.4334 27.8588 
2726 3 10.7008 10.5672 25.3491 
1 1 1.50967 3.01911 39.3733 
50 1 6.03845 3.01911 39.3733 
99 1 10.5672 3.01911 39.3733 
246 1 1.50967 7.54789 39.3733 
295 1 6.03845 7.54789 39.3733 
344 1 10.5672 7.54789 39.3733 
2356 1 1.50967 3.01911 31.8455 
2357 1 3.01911 1.50967 31.3999 
2358 1 0 0 33.9083 
2359 1 3.01911 1.50967 34.3552 
2360 1 0 0 36.8637 
2361 1 1.50967 3.01911 36.418 
2362 1 3.01911 1.50967 38.9265 
2386 1 6.03845 3.01911 31.8455 
2387 1 7.54789 1.50967 31.3999 
2388 1 4.52878 0 33.9083 
2389 1 7.54789 1.50967 34.3552 
2390 1 4.52878 0 36.8637 
2391 1 6.03845 3.01911 36.418 
2392 1 7.54789 1.50967 38.9265 
2416 1 10.5672 3.01911 31.8455 
2418 1 9.05756 0 33.9083 
2420 1 9.05756 0 36.8637 
2421 1 10.5672 3.01911 36.418 
2506 1 1.50967 7.54789 31.8455 
2507 1 3.01911 6.03845 31.3999 
2508 1 0 4.52878 33.9083 
2509 1 3.01911 6.03845 34.3552 
2510 1 0 4.52878 36.8637 
2511 1 1.50967 7.54789 36.418 
2512 1 3.01911 6.03845 38.9265 
2536 1 6.03845 7.54789 31.8455 
2537 1 7.54789 6.03845 31.3999 
2538 1 4.52878 4.52878 33.9083 
2539 1 7.54789 6.03845 34.3552 
2540 1 4.52878 4.52878 36.8637 
2541 1 6.03845 7.54789 36.418 
2542 1 7.54789 6.03845 38.9265 
2566 1 10.5672 7.54789 31.8455 
2568 1 9.05756 4.52878 33.9083 
2570 1 9.05756 4.52878 36.8637 
2571 1 10.5672 7.54789 36.418 
2657 1 3.01911 10.5672 31.3999 
2658 1 0 9.05756 33.9083 
2659 1 3.01911 10.5672 34.3552 
2660 1 0 9.05756 36.8637 
2662 1 3.01911 10.5672 38.9265 
2687 1 7.54789 10.5672 31.3999 
2688 1 4.52878 9.05756 33.9083 
2689 1 7.54789 10.5672 34.3552 
2690 1 4.52878 9.05756 36.8637 
2692 1 7.54789 10.5672 38.9265 
2718 1 9.05756 9.05756 33.9083 
2720 1 9.05756 9.05756 36.8637 
2369 3 4.39495 1.50967 32.8769 
2370 3 3.01911 2.88551 32.8769 
2371 3 1.64327 0.133825 32.8769 
2372 3 0.133825 3.01911 30.3685 
2373 3 1.50967 1.64327 30.3685 
2374 3 2.88551 4.39495 30.3685 
2375 3 2.88551 3.01911 37.8951 
2376 3 1.50967 4.39495 37.8951 
2377 3 0.133825 1.64327 37.8951 
2378 3 3.15294 0 35.3866 
2379 3 0 3.15294 35.3866 
2380 3 1.37584 1.37584 35.3866 
2399 3 8.92373 1.50967 32.8769 
2400 3 7.54789 2.88551 32.8769 
2401 3 6.17205 0.133825 32.8769 
2402 3 4.66261 3.01911 30.3685 
2403 3 6.03845 1.64327 30.3685 
2404 3 7.41429 4.39495 30.3685 
2405 3 7.41429 3.01911 37.8951 
2406 3 6.03845 4.39495 37.8951 
2407 3 4.66261 1.64327 37.8951 
2408 3 7.68172 0 35.3866 
2409 3 4.52878 3.15294 35.3866 
2410 3 5.90462 1.37584 35.3866 
2431 3 10.7008 0.133825 32.8769 
2432 3 9.19139 3.01911 30.3685 
2433 3 10.5672 1.64327 30.3685 
2436 3 10.5672 4.39495 37.8951 
2437 3 9.19139 1.64327 37.8951 
2439 3 9.05756 3.15294 35.3866 
2440 3 10.4334 1.37584 35.3866 
2519 3 4.39495 6.03845 32.8769 
2520 3 3.01911 7.41429 32.8769 
2521 3 1.64327 4.66261 32.8769 
2522 3 0.133825 7.54789 30.3685 
2523 3 1.50967 6.17205 30.3685 
2524 3 2.88551 8.92373 30.3685 
2525 3 2.88551 7.54789 37.8951 
2526 3 1.50967 8.92373 37.8951 
2527 3 0.133825 6.17205 37.8951 
2528 3 3.15294 4.52878 35.3866 
2529 3 0 7.68172 35.3866 
2530 3 1.37584 5.90462 35.3866 
2549 3 8.92373 6.03845 32.8769 
2550 3 7.54789 7.41429 32.8769 
2551 3 6.17205 4.66261 32.8769 
2552 3 4.66261 7.54789 30.3685 
2553 3 6.03845 6.17205 30.3685 
2554 3 7.41429 8.92373 30.3685 
2555 3 7.41429 7.54789 37.8951 
2556 3 6.03845 8.92373 37.8951 
2557 3 4.66261 6.17205 37.8951 
2558 3 7.68172 4.52878 35.3866 
2559 3 4.52878 7.68172 35.3866 
2560 3 5.90462 5.90462 35.3866 
2581 3 10.7008 4.66261 32.8769 
2582 3 9.19139 7.54789 30.3685 
2583 3 10.5672 6.17205 30.3685 
2586 3 10.5672 8.92373 37.8951 
2587 3 9.19139 6.17205 37.8951 
2589 3 9.05756 7.68172 35.3866 
2590 3 10.4334 5.90462 35.3866 
2669 3 4.39495 10.5672 32.8769 
2671 3 1.64327 9.19139 32.8769 
2673 3 1.50967 10.7008 30.3685 
2677 3 0.133825 10.7008 37.8951 
2678 3 3.15294 9.05756 35.3866 
2680 3 1.37584 10.4334 35.3866 
2699 3 8.92373 10.5672 32.8769 
2701 3 6.17205 9.19139 32.8769 
2703 3 6.03845 10.7008 30.3685 
2707 3 4.66261 10.7008 37.8951 
2708 3 7.68172 9.05756 35.3866 
2710 3 5.90462 10.4334 35.3866 
2731 3 10.7008 9.19139 32.8769 
2733 3 10.5672 10.7008 30.3685 
2737 3 9.19139 10.7008 37.8951 
2740 3 10.4334 10.4334 35.3866 
2 1 3.01911 1.50967 41.8818 
3 1 0 0 41.4361 
4 1 1.50967 3.01911 43.9446 
5 1 0 0 44.3915 
7 1 1.50967 3.01911 46.8999 
9 1 3.01911 1.50967 46.4543 
11 1 0 0 48.9627 
13 1 3.01911 1.50967 49.4096 
51 1 7.54789 1.50967 41.8818 
52 1 4.52878 0 41.4361 
53 1 6.03845 3.01911 43.9446 
54 1 4.52878 0 44.3915 
56 1 6.03845 3.01911 46.8999 
58 1 7.54789 1.50967 46.4543 
60 1 4.52878 0 48.9627 
62 1 7.54789 1.50967 49.4096 
101 1 9.05756 0 41.4361 
102 1 10.5672 3.01911 43.9446 
103 1 9.05756 0 44.3915 
105 1 10.5672 3.01911 46.8999 
109 1 9.05756 0 48.9627 
247 1 3.01911 6.03845 41.8818 
248 1 0 4.52878 41.4361 
249 1 1.50967 7.54789 43.9446 
250 1 0 4.52878 44.3915 
252 1 1.50967 7.54789 46.8999 
254 1 3.01911 6.03845 46.4543 
256 1 0 4.52878 48.9627 
258 1 3.01911 6.03845 49.4096 
296 1 7.54789 6.03845 41.8818 
297 1 4.52878 4.52878 41.4361 
298 1 6.03845 7.54789 43.9446 
299 1 4.52878 4.52878 44.3915 
301 1 6.03845 7.54789 46.8999 
303 1 7.54789 6.03845 46.4543 
305 1 4.52878 4.52878 48.9627 
307 1 7.54789 6.03845 49.4096 
346 1 9.05756 4.52878 41.4361 
347 1 10.5672 7.54789 43.9446 
348 1 9.05756 4.52878 44.3915 
350 1 10.5672 7.54789 46.8999 
354 1 9.05756 4.52878 48.9627 
492 1 3.01911 10.5672 41.8818 
493 1 0 9.05756 41.4361 
495 1 0 9.05756 44.3915 
499 1 3.01911 10.5672 46.4543 
501 1 0 9.05756 48.9627 
503 1 3.01911 10.5672 49.4096 
541 1 7.54789 10.5672 41.8818 
542 1 4.52878 9.05756 41.4361 
544 1 4.52878 9.05756 44.3915 
548 1 7.54789 10.5672 46.4543 
550 1 4.52878 9.05756 48.9627 
552 1 7.54789 10.5672 49.4096 
591 1 9.05756 9.05756 41.4361 
593 1 9.05756 9.05756 44.3915 
599 1 9.05756 9.05756 48.9627 
20 3 1.37584 0 42.9132 
21 3 0 1.37584 42.9132 
22 3 3.15294 3.15294 42.9132 
23 3 1.64327 1.50967 40.4047 
24 3 3.01911 0.133825 40.4047 
25 3 4.39495 2.88551 40.4047 
27 3 4.39495 1.50967 47.9313 
29 3 3.01911 2.88551 47.9313 
31 3 1.64327 0.133825 47.9313 
33 3 0.133825 3.01911 45.4229 
35 3 1.50967 1.64327 45.4229 
37 3 2.88551 4.39495 45.4229 
69 3 5.90462 0 42.9132 
70 3 4.52878 1.37584 42.9132 
71 3 7.68172 3.15294 42.9132 
72 3 6.17205 1.50967 40.4047 
73 3 7.54789 0.133825 40.4047 
74 3 8.92373 2.88551 40.4047 
76 3 8.92373 1.50967 47.9313 
78 3 7.54789 2.88551 47.9313 
80 3 6.17205 0.133825 47.9313 
82 3 4.66261 3.01911 45.4229 
84 3 6.03845 1.64327 45.4229 
86 3 7.41429 4.39495 45.4229 
118 3 10.4334 0 42.9132 
119 3 9.05756 1.37584 42.9132 
121 3 10.7008 1.50967 40.4047 
129 3 10.7008 0.133825 47.9313 
131 3 9.19139 3.01911 45.4229 
133 3 10.5672 1.64327 45.4229 
265 3 1.37584 4.52878 42.9132 
266 3 0 5.90462 42.9132 
267 3 3.15294 7.68172 42.9132 
268 3 1.64327 6.03845 40.4047 
269 3 3.01911 4.66261 40.4047 
270 3 4.39495 7.41429 40.4047 
272 3 4.39495 6.03845 47.9313 
274 3 3.01911 7.41429 47.9313 
276 3 1.64327 4.66261 47.9313 
278 3 0.133825 7.54789 45.4229 
280 3 1.50967 6.17205 45.4229 
282 3 2.88551 8.92373 45.4229 
314 3 5.90462 4.52878 42.9132 
315 3 4.52878 5.90462 42.9132 
316 3 7.68172 7.68172 42.9132 
317 3 6.17205 6.03845 40.4047 
318 3 7.54789 4.66261 40.4047 
319 3 8.92373 7.41429 40.4047 
321 3 8.92373 6.03845 47.9313 
323 3 7.54789 7.41429 47.9313 
325 3 6.17205 4.66261 47.9313 
327 3 4.66261 7.54789 45.4229 
329 3 6.03845 6.17205 45.4229 
331 3 7.41429 8.92373 45.4229 
363 3 10.4334 4.52878 42.9132 
364 3 9.05756 5.90462 42.9132 
366 3 10.7008 6.03845 40.4047 
374 3 10.7008 4.66261 47.9313 
376 3 9.19139 7.54789 45.4229 
378 3 10.5672 6.17205 45.4229 
510 3 1.37584 9.05756 42.9132 
511 3 0 10.4334 42.9132 
513 3 1.64327 10.5672 40.4047 
514 3 3.01911 9.19139 40.4047 
517 3 4.39495 10.5672 47.9313 
521 3 1.64327 9.19139 47.9313 
525 3 1.50967 10.7008 45.4229 
559 3 5.90462 9.05756 42.9132 
560 3 4.52878 10.4334 42.9132 
562 3 6.17205 10.5672 40.4047 
563 3 7.54789 9.19139 40.4047 
566 3 8.92373 10.5672 47.9313 
570 3 6.17205 9.19139 47.9313 
574 3 6.03845 10.7008 45.4229 
608 3 10.4334 9.05756 42.9132 
609 3 9.05756 10.4334 42.9132 
611 3 10.7008 10.5672 40.4047 
619 3 10.7008 9.19139 47.9313 
623 3 10.5672 10.7008 45.4229 
15 1 0 0 51.9181 
17 1 1.50967 3.01911 51.4724 
19 1 3.01911 1.50967 53.9821 
64 1 4.52878 0 51.9181 
66 1 6.03845 3.01911 51.4724 
68 1 7.54789 1.50967 53.9821 
113 1 9.05756 0 51.9181 
115 1 10.5672 3.01911 51.4724 
260 1 0 4.52878 51.9181 
262 1 1.50967 7.54789 51.4724 
264 1 3.01911 6.03845 53.9821 
309 1 4.52878 4.52878 51.9181 
311 1 6.03845 7.54789 51.4724 
313 1 7.54789 6.03845 53.9821 
358 1 9.05756 4.52878 51.9181 
360 1 10.5672 7.54789 51.4724 
505 1 0 9.05756 51.9181 
509 1 3.01911 10.5672 53.9821 
554 1 4.52878 9.05756 51.9181 
558 1 7.54789 10.5672 53.9821 
603 1 9.05756 9.05756 51.9181 
1227 1 1.50967 3.01911 54.4277 
1229 1 3.01911 1.50967 56.9362 
1231 1 0 0 56.4906 
1233 1 1.50967 3.01911 59.0002 
1235 1 0 0 59.4459 
1272 1 6.03845 3.01911 54.4277 
1274 1 7.54789 1.50967 56.9362 
1276 1 4.52878 0 56.4906 
1278 1 6.03845 3.01911 59.0002 
1280 1 4.52878 0 59.4459 
1317 1 10.5672 3.01911 54.4277 
1321 1 9.05756 0 56.4906 
1323 1 10.5672 3.01911 59.0002 
1325 1 9.05756 0 59.4459 
1452 1 1.50967 7.54789 54.4277 
1454 1 3.01911 6.03845 56.9362 
1456 1 0 4.52878 56.4906 
1458 1 1.50967 7.54789 59.0002 
1460 1 0 4.52878 59.4459 
1497 1 6.03845 7.54789 54.4277 
1499 1 7.54789 6.03845 56.9362 
1501 1 4.52878 4.52878 56.4906 
1503 1 6.03845 7.54789 59.0002 
1505 1 4.52878 4.52878 59.4459 
1542 1 10.5672 7.54789 54.4277 
1546 1 9.05756 4.52878 56.4906 
1548 1 10.5672 7.54789 59.0002 
1550 1 9.05756 4.52878 59.4459 
1679 1 3.01911 10.5672 56.9362 
1681 1 0 9.05756 56.4906 
1685 1 0 9.05756 59.4459 
1724 1 7.54789 10.5672 56.9362 
1726 1 4.52878 9.05756 56.4906 
1730 1 4.52878 9.05756 59.4459 
1771 1 9.05756 9.05756 56.4906 
1775 1 9.05756 9.05756 59.4459 
39 3 2.88551 3.01911 52.9495 
41 3 1.50967 4.39495 52.9495 
43 3 0.133825 1.64327 52.9495 
45 3 3.15294 0 50.441 
47 3 0 3.15294 50.441 
49 3 1.37584 1.37584 50.441 
88 3 7.41429 3.01911 52.9495 
90 3 6.03845 4.39495 52.9495 
92 3 4.66261 1.64327 52.9495 
94 3 7.68172 0 50.441 
96 3 4.52878 3.15294 50.441 
98 3 5.90462 1.37584 50.441 
139 3 10.5672 4.39495 52.9495 
141 3 9.19139 1.64327 52.9495 
145 3 9.05756 3.15294 50.441 
147 3 10.4334 1.37584 50.441 
284 3 2.88551 7.54789 52.9495 
286 3 1.50967 8.92373 52.9495 
288 3 0.133825 6.17205 52.9495 
290 3 3.15294 4.52878 50.441 
292 3 0 7.68172 50.441 
294 3 1.37584 5.90462 50.441 
333 3 7.41429 7.54789 52.9495 
335 3 6.03845 8.92373 52.9495 
337 3 4.66261 6.17205 52.9495 
339 3 7.68172 4.52878 50.441 
341 3 4.52878 7.68172 50.441 
343 3 5.90462 5.90462 50.441 
384 3 10.5672 8.92373 52.9495 
386 3 9.19139 6.17205 52.9495 
390 3 9.05756 7.68172 50.441 
392 3 10.4334 5.90462 50.441 
533 3 0.133825 10.7008 52.9495 
535 3 3.15294 9.05756 50.441 
539 3 1.37584 10.4334 50.441 
582 3 4.66261 10.7008 52.9495 
584 3 7.68172 9.05756 50.441 
588 3 5.90462 10.4334 50.441 
631 3 9.19139 10.7008 52.9495 
637 3 10.4334 10.4334 50.441 
1245 3 1.37584 0 57.9688 
1247 3 0 1.37584 57.9688 
1249 3 3.15294 3.15294 57.9688 
1251 3 1.64327 1.50967 55.4591 
1253 3 3.01911 0.133825 55.4591 
1255 3 4.39495 2.88551 55.4591 
1290 3 5.90462 0 57.9688 
1292 3 4.52878 1.37584 57.9688 
1294 3 7.68172 3.15294 57.9688 
1296 3 6.17205 1.50967 55.4591 
1298 3 7.54789 0.133825 55.4591 
1300 3 8.92373 2.88551 55.4591 
1335 3 10.4334 0 57.9688 
1337 3 9.05756 1.37584 57.9688 
1341 3 10.7008 1.50967 55.4591 
1470 3 1.37584 4.52878 57.9688 
1472 3 0 5.90462 57.9688 
1474 3 3.15294 7.68172 57.9688 
1476 3 1.64327 6.03845 55.4591 
1478 3 3.01911 4.66261 55.4591 
1480 3 4.39495 7.41429 55.4591 
1515 3 5.90462 4.52878 57.9688 
1517 3 4.52878 5.90462 57.9688 
1519 3 7.68172 7.68172 57.9688 
1521 3 6.17205 6.03845 55.4591 
1523 3 7.54789 4.66261 55.4591 
1525 3 8.92373 7.41429 55.4591 
1560 3 10.4334 4.52878 57.9688 
1562 3 9.05756 5.90462 57.9688 
1566 3 10.7008 6.03845 55.4591 
1695 3 1.37584 9.05756 57.9688 
1697 3 0 10.4334 57.9688 
1701 3 1.64327 10.5672 55.4591 
1703 3 3.01911 9.19139 55.4591 
1740 3 5.90462 9.05756 57.9688 
1742 3 4.52878 10.4334 57.9688 
1746 3 6.17205 10.5672 55.4591 
1748 3 7.54789 9.19139 55.4591 
1785 3 10.4334 9.05756 57.9688 
1787 3 9.05756 10.4334 57.9688 
1791 3 10.7008 10.5672 55.4591 
1238 1 3.01911 1.50967 61.5087 
1283 1 7.54789 1.50967 61.5087 
1463 1 3.01911 6.03845 61.5087 
1508 1 7.54789 6.03845 61.5087 
1688 1 3.01911 10.5672 61.5087 
1733 1 7.54789 10.5672 61.5087 
32 3 0.133825 3.01911 61.5087 
34 3 1.50967 1.64327 61.5087 
36 3 2.88551 4.39495 61.5087 
81 3 4.66261 3.01911 61.5087 
83 3 6.03845 1.64327 61.5087 
85 3 7.41429 4.39495 61.5087 
130 3 9.19139 3.01911 61.5087 
132 3 10.5672 1.64327 61.5087 
277 3 0.133825 7.54789 61.5087 
279 3 1.50967 6.17205 61.5087 
281 3 2.88551 8.92373 61.5087 
326 3 4.66261 7.54789 61.5087 
328 3 6.03845 6.17205 61.5087 
330 3 7.41429 8.92373 61.5087 
375 3 9.19139 7.54789 61.5087 
377 3 10.5672 6.17205 61.5087 
524 3 1.50967 10.7008 61.5087 
573 3 6.03845 10.7008 61.5087 
622 3 10.5672 10.7008 61.5087 
1260 3 0.133825 3.01911 60.4773 
1262 3 1.50967 1.64327 60.4773 
1264 3 2.88551 4.39495 60.4773 
1305 3 4.66261 3.01911 60.4773 
1307 3 6.03845 1.64327 60.4773 
1309 3 7.41429 4.39495 60.4773 
1350 3 9.19139 3.01911 60.4773 
1352 3 10.5672 1.64327 60.4773 
1485 3 0.133825 7.54789 60.4773 
1487 3 1.50967 6.17205 60.4773 
1489 3 2.88551 8.92373 60.4773 
1530 3 4.66261 7.54789 60.4773 
1532 3 6.03845 6.17205 60.4773 
1534 3 7.41429 8.92373 60.4773 
1575 3 9.19139 7.54789 60.4773 
1577 3 10.5672 6.17205 60.4773 
1712 3 1.50967 10.7008 60.4773 
1757 3 6.03845 10.7008 60.4773 
1802 3 10.5672 10.7008 60.4773 
3101 4 4.24573 4.24573 64.3191 
3102 4 4.24573 4.24573 69.9797 
3103 4 4.24573 9.90671 64.3191 
3104 4 4.24573 9.90671 69.9797 
3105 4 9.90671 4.24573 64.3191 
3106 4 9.90671 4.24573 69.9797 
3107 4 9.90671 9.90671 64.3191 
3108 4 9.90671 9.90671 69.9797 
3109 4 1.41524 1.41524 64.3191 
3110 4 1.41524 1.41524 69.9797 
3111 4 1.41524 7.07622 64.3191 
3112 4 1.41524 7.07622 69.9797 
3113 4 7.07622 1.41524 64.3191 
3114 4 7.07622 1.41524 69.9797 
3115 4 7.07622 7.07622 64.3191 
3116 4 7.07622 7.07622 69.9797 
3117 4 1.41524 4.24573 67.1488 
3119 4 1.41524 9.90671 67.1488 
3121 4 7.07622 4.24573 67.1488 
3123 4 7.07622 9.90671 67.1488 
3125 4 4.24573 1.41524 67.1488 
3127 4 4.24573 7.07622 67.1488 
3129 4 9.90671 1.41524 67.1488 
3131 4 9.90671 7.07622 67.1488 
3133 2 4.24573 1.41524 64.3191 
3134 2 4.24573 1.41524 69.9797 
3135 2 4.24573 7.07622 64.3191 
3136 2 4.24573 7.07622 69.9797 
3137 2 9.90671 1.41524 64.3191 
3138 2 9.90671 1.41524 69.9797 
3139 2 9.90671 7.07622 64.3191 
3140 2 9.90671 7.07622 69.9797 
3141 2 1.41524 4.24573 64.3191 
3142 2 1.41524 4.24573 69.9797 
3143 2 1.41524 9.90671 64.3191 
3144 2 1.41524 9.90671 69.9797 
3145 2 7.07622 4.24573 64.3191 
3146 2 7.07622 4.24573 69.9797 
3147 2 7.07622 9.90671 64.3191 
3148 2 7.07622 9.90671 69.9797 
3150 2 0 0 68.5643 
3152 2 0 5.66097 68.5643 
3154 2 5.66097 0 68.5643 
3156 2 5.66097 5.66097 68.5643 
3158 2 2.83049 2.83049 68.5643 
3160 2 2.83049 8.49146 68.5643 
3162 2 8.49146 2.83049 68.5643 
3164 2 8.49146 8.49146 68.5643 
3165 2 2.83049 0 65.7345 
3167 2 2.83049 5.66097 65.7345 
3169 2 8.49146 0 65.7345 
3171 2 8.49146 5.66097 65.7345 
3173 2 0 2.83049 65.7345 
3175 2 0 8.49146 65.7345 
3177 2 5.66097 2.83049 65.7345 
3179 2 5.66097 8.49146 65.7345 
3181 2 4.24573 4.24573 67.1488 
3183 2 4.24573 9.90671 67.1488 
3185 2 9.90671 4.24573 67.1488 
3187 2 9.90671 9.90671 67.1488 
3189 2 1.41524 1.41524 67.1488 
3191 2 1.41524 7.07622 67.1488 
3193 2 7.07622 1.41524 67.1488 
3195 2 7.07622 7.07622 67.1488 
3197 2 0 0 65.7345 
3199 2 0 5.66097 65.7345 
3201 2 5.66097 0 65.7345 
3203 2 5.66097 5.66097 65.7345 
3206 2 2.83049 0 68.5643 
3208 2 2.83049 5.66097 68.5643 
3210 2 8.49146 0 68.5643 
3212 2 8.49146 5.66097 68.5643 
3214 2 0 2.83049 68.5643 
3216 2 0 8.49146 68.5643 
3218 2 5.66097 2.83049 68.5643 
3220 2 5.66097 8.49146 68.5643 
3221 2 2.83049 2.83049 65.7345 
3223 2 2.83049 8.49146 65.7345 
3225 2 8.49146 2.83049 65.7345 
3227 2 8.49146 8.49146 65.7345 
3118 4 1.41524 4.24573 72.8107 
3120 4 1.41524 9.90671 72.8107 
3122 4 7.07622 4.24573 72.8107 
3124 4 7.07622 9.90671 72.8107 
3126 4 4.24573 1.41524 72.8107 
3128 4 4.24573 7.07622 72.8107 
3130 4 9.90671 1.41524 72.8107 
3132 4 9.90671 7.07622 72.8107 
3613 4 4.24573 4.24573 75.6404 
3615 4 4.24573 9.90671 75.6404 
3617 4 9.90671 4.24573 75.6404 
3619 4 9.90671 9.90671 75.6404 
3621 4 1.41524 1.41524 75.6404 
3623 4 1.41524 7.07622 75.6404 
3625 4 7.07622 1.41524 75.6404 
3627 4 7.07622 7.07622 75.6404 
3629 4 1.41524 4.24573 78.4713 
3631 4 1.41524 9.90671 78.4713 
3633 4 7.07622 4.24573 78.4713 
3635 4 7.07622 9.90671 78.4713 
3637 4 4.24573 1.41524 78.4713 
3639 4 4.24573 7.07622 78.4713 
3641 4 9.90671 1.41524 78.4713 
3643 4 9.90671 7.07622 78.4713 
3166 2 2.83049 0 71.3952 
3168 2 2.83049 5.66097 71.3952 
3170 2 8.49146 0 71.3952 
3172 2 8.49146 5.66097 71.3952 
3174 2 0 2.83049 71.3952 
3176 2 0 8.49146 71.3952 
3178 2 5.66097 2.83049 71.3952 
3180 2 5.66097 8.49146 71.3952 
3182 2 4.24573 4.24573 72.8107 
3184 2 4.24573 9.90671 72.8107 
3186 2 9.90671 4.24573 72.8107 
3188 2 9.90671 9.90671 72.8107 
3190 2 1.41524 1.41524 72.8107 
3192 2 1.41524 7.07622 72.8107 
3194 2 7.07622 1.41524 72.8107 
3196 2 7.07622 7.07622 72.8107 
3198 2 0 0 71.3952 
3200 2 0 5.66097 71.3952 
3202 2 5.66097 0 71.3952 
3204 2 5.66097 5.66097 71.3952 
3222 2 2.83049 2.83049 71.3952 
3224 2 2.83049 8.49146 71.3952 
3226 2 8.49146 2.83049 71.3952 
3228 2 8.49146 8.49146 71.3952 
3645 2 4.24573 1.41524 75.6404 
3647 2 4.24573 7.07622 75.6404 
3649 2 9.90671 1.41524 75.6404 
3651 2 9.90671 7.07622 75.6404 
3653 2 1.41524 4.24573 75.6404 
3655 2 1.41524 9.90671 75.6404 
3657 2 7.07622 4.24573 75.6404 
3659 2 7.07622 9.90671 75.6404 
3661 2 0 0 74.2261 