LAMMPS (30 Jul 2016)
# Lammps in file of Fe

echo                           screen
  triclinic box = (0 0 0) to (56.9623 56.9623 56.9623) with tilt (0 0 0)
  1 by 1 by 1 MPI processor grid
  reading atoms ...
  16000 atoms
Reading potential file Fe_mm.eam.fs with DATE: 2007-06-11
WARNING: Resetting reneighboring criteria during minimization (../min.cpp:168)
Neighbor list info ...
  1 neighbor list requests
  update every 1 steps, delay 0 steps, check yes
  max neighbors/atom: 2000, page size: 100000
  master list distance cutoff = 5.6
  ghost atom cutoff = 5.6
  binsize = 2.8 -> bins = 21 21 21
Memory usage per processor = 9.98949 Mbytes
Step Temp E_pair E_mol TotEng Press 
       0            0   -65953.027            0   -65953.027    13557.666 
       1            0   -65953.027            0   -65953.027    13557.666 
Loop time of 0.248384 on 1 procs for 1 steps with 16000 atoms

48.5% CPU use with 1 MPI tasks x no OpenMP threads

Minimization stats:
  Stopping criterion = energy tolerance
  Energy initial, next-to-last, final = 
        -65953.0271487     -65953.0271487     -65953.0271491
  Force two-norm initial, final = 0.00255178 0.000573248
  Force max component initial, final = 3.55127e-05 6.31856e-06
  Final line search alpha, max atom move = 1 6.31856e-06
  Iterations, force evaluations = 1 2

MPI task timing breakdown:
Section |  min time  |  avg time  |  max time  |%varavg| %total
---------------------------------------------------------------
Pair    | 0.18901    | 0.18901    | 0.18901    |   0.0 | 76.09
Neigh   | 0          | 0          | 0          |   0.0 |  0.00
Comm    | 0.00029397 | 0.00029397 | 0.00029397 |   0.0 |  0.12
Output  | 0          | 0          | 0          |   0.0 |  0.00
Modify  | 0          | 0          | 0          |   0.0 |  0.00
Other   |            | 0.05908    |            |       | 23.79

Nlocal:    16000 ave 16000 max 16000 min
Histogram: 1 0 0 0 0 0 0 0 0 0
Nghost:    9991 ave 9991 max 9991 min
Histogram: 1 0 0 0 0 0 0 0 0 0
Neighs:    464000 ave 464000 max 464000 min
Histogram: 1 0 0 0 0 0 0 0 0 0

Total # of neighbors = 464000
Ave neighs/atom = 29
Neighbor list builds = 0
Dangerous builds = 0
Neighbor list info ...
  1 neighbor list requests
  update every 1 steps, delay 10 steps, check yes
  max neighbors/atom: 2000, page size: 100000
  master list distance cutoff = 5.6
  ghost atom cutoff = 5.6
  binsize = 2.8 -> bins = 21 21 21
Memory usage per processor = 7.74521 Mbytes
Step Temp E_pair E_mol TotEng Press 
       1            0   -65953.027            0   -65953.027    13557.666 
     100 9.1538418e-09   -65953.027            0   -65953.027    13557.666 
     200 5.048661e-09   -65953.027            0   -65953.027    13557.666 
     300 8.6181504e-09   -65953.027            0   -65953.027    13557.666 
     400 7.9177298e-09   -65953.027            0   -65953.027    13557.666 
     500 8.0659113e-09   -65953.027            0   -65953.027    13557.666 
     600 5.6798239e-09   -65953.027            0   -65953.027    13557.666 
     700 6.6429624e-09   -65953.027            0   -65953.027    13557.666 
     800 6.4188714e-09   -65953.027            0   -65953.027    13557.666 
     900 3.5994371e-09   -65953.027            0   -65953.027    13557.666 
    1000 7.0953383e-09   -65953.027            0   -65953.027    13557.666 
    1100 4.3013042e-09   -65953.027            0   -65953.027    13557.666 
    1200 7.3468325e-09   -65953.027            0   -65953.027    13557.666 
    1300 7.035928e-09   -65953.027            0   -65953.027    13557.666 
    1400 9.8524421e-09   -65953.027            0   -65953.027    13557.666 
    1500 5.6209642e-09   -65953.027            0   -65953.027    13557.666 
    1600 9.0281179e-09   -65953.027            0   -65953.027    13557.666 
    1700 4.934217e-09   -65953.027            0   -65953.027    13557.666 
    1800 4.1074895e-09   -65953.027            0   -65953.027    13557.666 
    1900 7.7598427e-09   -65953.027            0   -65953.027    13557.666 
    2000 3.6040508e-09   -65953.027            0   -65953.027    13557.666 
    2100 7.8769322e-09   -65953.027            0   -65953.027    13557.666 
    2200 5.5080687e-09   -65953.027            0   -65953.027    13557.666 
    2300 9.4729504e-09   -65953.027            0   -65953.027    13557.666 
    2400 5.4901995e-09   -65953.027            0   -65953.027    13557.666 
    2500 1.0264631e-08   -65953.027            0   -65953.027    13557.666 
    2600 6.9012549e-09   -65953.027            0   -65953.027    13557.666 
    2700 4.8610456e-09   -65953.027            0   -65953.027    13557.666 
    2800 7.2383744e-09   -65953.027            0   -65953.027    13557.666 
    2900 2.6968638e-09   -65953.027            0   -65953.027    13557.666 
    3000 6.8322064e-09   -65953.027            0   -65953.027    13557.666 
    3100 5.9029232e-09   -65953.027            0   -65953.027    13557.666 
    3200 8.5920713e-09   -65953.027            0   -65953.027    13557.666 
    3300 6.4745802e-09   -65953.027            0   -65953.027    13557.666 
    3400 1.0203464e-08   -65953.027            0   -65953.027    13557.666 
    3500 6.4516507e-09   -65953.027            0   -65953.027    13557.666 
    3600 7.9036782e-09   -65953.027            0   -65953.027    13557.666 
    3700 7.6259797e-09   -65953.027            0   -65953.027    13557.666 
    3800 4.800546e-09   -65953.027            0   -65953.027    13557.666 
    3900 5.2550683e-09   -65953.027            0   -65953.027    13557.666 
    4000 4.8117576e-09   -65953.027            0   -65953.027    13557.666 
    4100 7.1457432e-09   -65953.027            0   -65953.027    13557.666 
    4200 4.8638654e-09   -65953.027            0   -65953.027    13557.666 
    4300  1.22384e-08   -65953.027            0   -65953.027    13557.666 
    4400 5.6457626e-09   -65953.027            0   -65953.027    13557.666 
    4500 9.6943565e-09   -65953.027            0   -65953.027    13557.666 
    4600 7.4361767e-09   -65953.027            0   -65953.027    13557.666 
    4700 5.5084527e-09   -65953.027            0   -65953.027    13557.666 
    4800 7.3961731e-09   -65953.027            0   -65953.027    13557.666 
    4900 4.3632777e-09   -65953.027            0   -65953.027    13557.666 
    5000 7.1899765e-09   -65953.027            0   -65953.027    13557.666 
    5100 3.4233832e-09   -65953.027            0   -65953.027    13557.666 
    5200 1.0368867e-08   -65953.027            0   -65953.027    13557.666 
    5300 5.6586706e-09   -65953.027            0   -65953.027    13557.666 
    5400 1.0673972e-08   -65953.027            0   -65953.027    13557.666 
    5500 9.8220155e-09   -65953.027            0   -65953.027    13557.666 
    5600 6.2100179e-09   -65953.027            0   -65953.027    13557.666 
    5700 7.6862579e-09   -65953.027            0   -65953.027    13557.666 
    5800 5.3816025e-09   -65953.027            0   -65953.027    13557.666 
    5900 5.5263979e-09   -65953.027            0   -65953.027    13557.666 
    6000 4.9545619e-09   -65953.027            0   -65953.027    13557.666 
    6100 8.5347435e-09   -65953.027            0   -65953.027    13557.666 
    6200 4.8673051e-09   -65953.027            0   -65953.027    13557.666 
    6300 9.7290577e-09   -65953.027            0   -65953.027    13557.666 
    6400 8.5255323e-09   -65953.027            0   -65953.027    13557.666 
    6500 9.7775704e-09   -65953.027            0   -65953.027    13557.666 
    6600 8.1568414e-09   -65953.027            0   -65953.027    13557.666 
    6700 8.7915574e-09   -65953.027            0   -65953.027    13557.666 
    6800 4.6198377e-09   -65953.027            0   -65953.027    13557.666 
    6900 4.797622e-09   -65953.027            0   -65953.027    13557.666 
    7000 7.8540125e-09   -65953.027            0   -65953.027    13557.666 
    7100 2.5971853e-09   -65953.027            0   -65953.027    13557.666 
    7200 1.1599801e-08   -65953.027            0   -65953.027    13557.666 
    7300 6.0242926e-09   -65953.027            0   -65953.027    13557.666 
    7400 1.0081788e-08   -65953.027            0   -65953.027    13557.666 
    7500 8.457347e-09   -65953.027            0   -65953.027    13557.666 
    7600 1.0009294e-08   -65953.027            0   -65953.027    13557.666 
    7700 7.8510082e-09   -65953.027            0   -65953.027    13557.666 
    7800 5.8588638e-09   -65953.027            0   -65953.027    13557.666 
    7900 8.9664286e-09   -65953.027            0   -65953.027    13557.666 
    8000 1.1730084e-09   -65953.027            0   -65953.027    13557.666 
    8100 9.4561078e-09   -65953.027            0   -65953.027    13557.666 
    8200 5.8525532e-09   -65953.027            0   -65953.027    13557.666 
    8300 9.2181536e-09   -65953.027            0   -65953.027    13557.666 
    8400 9.5115962e-09   -65953.027            0   -65953.027    13557.666 
    8500 9.4918581e-09   -65953.027            0   -65953.027    13557.666 
    8600 7.8407392e-09   -65953.027            0   -65953.027    13557.666 
    8700 8.1384143e-09   -65953.027            0   -65953.027    13557.666 
    8800 8.3556673e-09   -65953.027            0   -65953.027    13557.666 
    8900 4.5076143e-09   -65953.027            0   -65953.027    13557.666 
    9000 8.5994396e-09   -65953.027            0   -65953.027    13557.666 
    9100 4.8588754e-09   -65953.027            0   -65953.027    13557.666 
    9200 7.8094142e-09   -65953.027            0   -65953.027    13557.666 
    9300 8.1096335e-09   -65953.027            0   -65953.027    13557.666 
    9400 1.1985587e-08   -65953.027            0   -65953.027    13557.666 
    9500 7.178248e-09   -65953.027            0   -65953.027    13557.666 
    9600 1.1416654e-08   -65953.027            0   -65953.027    13557.666 
    9700 7.5127651e-09   -65953.027            0   -65953.027    13557.666 
    9800 4.8730741e-09   -65953.027            0   -65953.027    13557.666 
    9900 9.4233885e-09   -65953.027            0   -65953.027    13557.666 
   10000 3.9959769e-09   -65953.027            0   -65953.027    13557.666 
   10100 9.3920068e-09   -65953.027            0   -65953.027    13557.666 
   10200 5.5485746e-09   -65953.027            0   -65953.027    13557.666 
   10300 1.1055189e-08   -65953.027            0   -65953.027    13557.666 
   10400 7.0491488e-09   -65953.027            0   -65953.027    13557.666 
   10500 1.2270244e-08   -65953.027            0   -65953.027    13557.666 
   10600 9.8454879e-09   -65953.027            0   -65953.027    13557.666 
   10700 6.6567206e-09   -65953.027            0   -65953.027    13557.666 
   10800 1.0269876e-08   -65953.027            0   -65953.027    13557.666 
   10900 2.9703977e-09   -65953.027            0   -65953.027    13557.666 
   11000 7.9025303e-09   -65953.027            0   -65953.027    13557.666 
   11100 6.5346486e-09   -65953.027            0   -65953.027    13557.666 
   11200 9.6689588e-09   -65953.027            0   -65953.027    13557.666 
   11300 7.0762362e-09   -65953.027            0   -65953.027    13557.666 
   11400 1.2350741e-08   -65953.027            0   -65953.027    13557.666 
   11500 8.6940529e-09   -65953.027            0   -65953.027    13557.666 
   11600 9.5711294e-09   -65953.027            0   -65953.027    13557.666 
   11700 1.0954584e-08   -65953.027            0   -65953.027    13557.666 
   11800 6.6026071e-09   -65953.027            0   -65953.027    13557.666 
   11900 7.5160735e-09   -65953.027            0   -65953.027    13557.666 
   12000 5.190177e-09   -65953.027            0   -65953.027    13557.666 
   12100 8.5303247e-09   -65953.027            0   -65953.027    13557.666 
   12200 5.1407961e-09   -65953.027            0   -65953.027    13557.666 
   12300 1.4078365e-08   -65953.027            0   -65953.027    13557.666 
   12400 7.3910262e-09   -65953.027            0   -65953.027    13557.666 
   12500 1.1792177e-08   -65953.027            0   -65953.027    13557.666 
   12600 1.0821481e-08   -65953.027            0   -65953.027    13557.666 
   12700 6.6210709e-09   -65953.027            0   -65953.027    13557.666 
   12800 1.0225309e-08   -65953.027            0   -65953.027    13557.666 
   12900 5.7914756e-09   -65953.027            0   -65953.027    13557.666 
   13000 8.7066824e-09   -65953.027            0   -65953.027    13557.666 
   13100 3.3621127e-09   -65953.027            0   -65953.027    13557.666 
   13200 1.1973189e-08   -65953.027            0   -65953.027    13557.666 
   13300 6.7111147e-09   -65953.027            0   -65953.027    13557.666 
   13400 1.1966277e-08   -65953.027            0   -65953.027    13557.666 
   13500 1.3535373e-08   -65953.027            0   -65953.027    13557.666 
   13600 8.8287804e-09   -65953.027            0   -65953.027    13557.666 
   13700 1.0555632e-08   -65953.027            0   -65953.027    13557.666 
   13800 7.5474208e-09   -65953.027            0   -65953.027    13557.666 
   13900 7.5488053e-09   -65953.027            0   -65953.027    13557.666 
   14000 5.5600232e-09   -65953.027            0   -65953.027    13557.666 
   14100 1.0158373e-08   -65953.027            0   -65953.027    13557.666 
   14200 4.9402717e-09   -65953.027            0   -65953.027    13557.666 
   14300 1.133932e-08   -65953.027            0   -65953.027    13557.666 
   14400 1.0059179e-08   -65953.027            0   -65953.027    13557.666 
   14500 1.2022778e-08   -65953.027            0   -65953.027    13557.666 
   14600 1.1525424e-08   -65953.027            0   -65953.027    13557.666 
   14700 1.2017463e-08   -65953.027            0   -65953.027    13557.666 
   14800 7.9254319e-09   -65953.027            0   -65953.027    13557.666 
   14900 5.3978801e-09   -65953.027            0   -65953.027    13557.666 
   15000 1.1017763e-08   -65953.027            0   -65953.027    13557.666 
   15100 2.0366294e-09   -65953.027            0   -65953.027    13557.666 
   15200 1.3017691e-08   -65953.027            0   -65953.027    13557.666 
   15300 7.5296559e-09   -65953.027            0   -65953.027    13557.666 
   15400 1.1363076e-08   -65953.027            0   -65953.027    13557.666 
   15500 1.1041267e-08   -65953.027            0   -65953.027    13557.666 
   15600 1.1915492e-08   -65953.027            0   -65953.027    13557.666 
   15700 1.2227299e-08   -65953.027            0   -65953.027    13557.666 
   15800 7.5571844e-09   -65953.027            0   -65953.027    13557.666 
   15900 1.2534346e-08   -65953.027            0   -65953.027    13557.666 
   16000 2.1317358e-09   -65953.027            0   -65953.027    13557.666 
   16100 1.0911171e-08   -65953.027            0   -65953.027    13557.666 
   16200 7.1749138e-09   -65953.027            0   -65953.027    13557.666 
   16300 9.9530558e-09   -65953.027            0   -65953.027    13557.666 
   16400 1.250499e-08   -65953.027            0   -65953.027    13557.666 
   16500 1.1742548e-08   -65953.027            0   -65953.027    13557.666 
   16600 1.0542529e-08   -65953.027            0   -65953.027    13557.666 
   16700 1.0786711e-08   -65953.027            0   -65953.027    13557.666 
   16800 1.164487e-08   -65953.027            0   -65953.027    13557.666 
   16900 6.1278069e-09   -65953.027            0   -65953.027    13557.666 
   17000 1.0679637e-08   -65953.027            0   -65953.027    13557.666 
   17100 6.1080531e-09   -65953.027            0   -65953.027    13557.666 
   17200 9.0126538e-09   -65953.027            0   -65953.027    13557.666 
   17300 8.7635854e-09   -65953.027            0   -65953.027    13557.666 
   17400 1.4791428e-08   -65953.027            0   -65953.027    13557.666 
   17500 9.8343104e-09   -65953.027            0   -65953.027    13557.666 
   17600 1.4737952e-08   -65953.027            0   -65953.027    13557.666 
   17700 1.1348345e-08   -65953.027            0   -65953.027    13557.666 
   17800 6.6132233e-09   -65953.027            0   -65953.027    13557.666 
   17900 1.3282955e-08   -65953.027            0   -65953.027    13557.666 
   18000 4.2886532e-09   -65953.027            0   -65953.027    13557.666 
   18100 1.1646191e-08   -65953.027            0   -65953.027    13557.666 
   18200 6.6578126e-09   -65953.027            0   -65953.027    13557.666 
   18300 1.2503563e-08   -65953.027            0   -65953.027    13557.666 
   18400 8.5163354e-09   -65953.027            0   -65953.027    13557.666 
   18500 1.4847108e-08   -65953.027            0   -65953.027    13557.666 
   18600 1.4439581e-08   -65953.027            0   -65953.027    13557.666 
   18700 8.4929634e-09   -65953.027            0   -65953.027    13557.666 
   18800 1.5148455e-08   -65953.027            0   -65953.027    13557.666 
   18900 4.8543405e-09   -65953.027            0   -65953.027    13557.666 
   19000 9.729489e-09   -65953.027            0   -65953.027    13557.666 
   19100 7.7460288e-09   -65953.027            0   -65953.027    13557.666 
   19200 1.1460553e-08   -65953.027            0   -65953.027    13557.666 
   19300 8.5875337e-09   -65953.027            0   -65953.027    13557.666 
   19400 1.427579e-08   -65953.027            0   -65953.027    13557.666 
   19500 1.1660212e-08   -65953.027            0   -65953.027    13557.666 
   19600 1.1969682e-08   -65953.027            0   -65953.027    13557.666 
   19700 1.5413121e-08   -65953.027            0   -65953.027    13557.666 
   19800 9.1342447e-09   -65953.027            0   -65953.027    13557.666 
   19900 1.0799668e-08   -65953.027            0   -65953.027    13557.666 
   20000 7.1968851e-09   -65953.027            0   -65953.027    13557.666 
   20100 1.0144883e-08   -65953.027            0   -65953.027    13557.666 
   20200 5.3444059e-09   -65953.027            0   -65953.027    13557.666 
   20300 1.7206989e-08   -65953.027            0   -65953.027    13557.666 
   20400 9.798388e-09   -65953.027            0   -65953.027    13557.666 
   20500 1.4065141e-08   -65953.027            0   -65953.027    13557.666 
   20600 1.5755896e-08   -65953.027            0   -65953.027    13557.666 
   20700 9.4073823e-09   -65953.027            0   -65953.027    13557.666 
   20800 1.3903074e-08   -65953.027            0   -65953.027    13557.666 
   20900 7.9866347e-09   -65953.027            0   -65953.027    13557.666 
   21000 1.2073395e-08   -65953.027            0   -65953.027    13557.666 
   21100 3.4931886e-09   -65953.027            0   -65953.027    13557.666 
   21200 1.3361986e-08   -65953.027            0   -65953.027    13557.666 
   21300 8.0191745e-09   -65953.027            0   -65953.027    13557.666 
   21400 1.3713586e-08   -65953.027            0   -65953.027    13557.666 
   21500 1.7528964e-08   -65953.027            0   -65953.027    13557.666 
   21600 1.2246989e-08   -65953.027            0   -65953.027    13557.666 
   21700 1.5460119e-08   -65953.027            0   -65953.027    13557.666 
   21800 1.1113393e-08   -65953.027            0   -65953.027    13557.666 
   21900 1.1058265e-08   -65953.027            0   -65953.027    13557.666 
   22000 7.0025025e-09   -65953.027            0   -65953.027    13557.666 
   22100 1.3645674e-08   -65953.027            0   -65953.027    13557.666 
   22200 5.0339825e-09   -65953.027            0   -65953.027    13557.666 
   22300 1.2721584e-08   -65953.027            0   -65953.027    13557.666 
   22400 1.2329671e-08   -65953.027            0   -65953.027    13557.666 
   22500 1.4248217e-08   -65953.027            0   -65953.027    13557.666 
   22600 1.5508653e-08   -65953.027            0   -65953.027    13557.666 
   22700 1.5909868e-08   -65953.027            0   -65953.027    13557.666 
   22800 1.3677633e-08   -65953.027            0   -65953.027    13557.666 
   22900 6.943058e-09   -65953.027            0   -65953.027    13557.666 
   23000 1.5252875e-08   -65953.027            0   -65953.027    13557.666 
   23100 2.903342e-09   -65953.027            0   -65953.027    13557.666 
   23200 1.5424512e-08   -65953.027            0   -65953.027    13557.666 
   23300 9.3499583e-09   -65953.027            0   -65953.027    13557.666 
   23400 1.2745012e-08   -65953.027            0   -65953.027    13557.666 
   23500 1.5107893e-08   -65953.027            0   -65953.027    13557.666 
   23600 1.3894436e-08   -65953.027            0   -65953.027    13557.666 
   23700 1.7303898e-08   -65953.027            0   -65953.027    13557.666 
   23800 1.0719958e-08   -65953.027            0   -65953.027    13557.666 
   23900 1.7767445e-08   -65953.027            0   -65953.027    13557.666 
   24000 3.6088974e-09   -65953.027            0   -65953.027    13557.666 
   24100 1.2957806e-08   -65953.027            0   -65953.027    13557.666 
   24200 9.7388252e-09   -65953.027            0   -65953.027    13557.666 
   24300 1.0731378e-08   -65953.027            0   -65953.027    13557.666 
   24400 1.5686071e-08   -65953.027            0   -65953.027    13557.666 
   24500 1.5497171e-08   -65953.027            0   -65953.027    13557.666 
   24600 1.4354369e-08   -65953.027            0   -65953.027    13557.666 
   24700 1.4596273e-08   -65953.027            0   -65953.027    13557.666 
   24800 1.6635838e-08   -65953.027            0   -65953.027    13557.666 
   24900 9.0741195e-09   -65953.027            0   -65953.027    13557.666 
   25000 1.4918989e-08   -65953.027            0   -65953.027    13557.666 
   25100 7.1890976e-09   -65953.027            0   -65953.027    13557.666 
   25200 1.1055772e-08   -65953.027            0   -65953.027    13557.666 
   25300 9.7624389e-09   -65953.027            0   -65953.027    13557.666 
   25400 1.7242034e-08   -65953.027            0   -65953.027    13557.666 
   25500 1.2712881e-08   -65953.027            0   -65953.027    13557.666 
   25600 1.8860619e-08   -65953.027            0   -65953.027    13557.666 
   25700 1.7634748e-08   -65953.027            0   -65953.027    13557.666 
   25800 8.2575763e-09   -65953.027            0   -65953.027    13557.666 
   25900  1.97385e-08   -65953.027            0   -65953.027    13557.666 
   26000 6.4633307e-09   -65953.027            0   -65953.027    13557.666 
   26100 1.4764187e-08   -65953.027            0   -65953.027    13557.666 
   26200 8.5677763e-09   -65953.027            0   -65953.027    13557.666 
   26300 1.4904066e-08   -65953.027            0   -65953.027    13557.666 
   26400 1.080057e-08   -65953.027            0   -65953.027    13557.666 
   26500 1.6344968e-08   -65953.027            0   -65953.027    13557.666 
   26600 2.093811e-08   -65953.027            0   -65953.027    13557.666 
   26700 1.0921597e-08   -65953.027            0   -65953.027    13557.666 
   26800 2.1577785e-08   -65953.027            0   -65953.027    13557.666 
   26900 7.9800778e-09   -65953.027            0   -65953.027    13557.666 
   27000 1.264104e-08   -65953.027            0   -65953.027    13557.666 
   27100 1.0833028e-08   -65953.027            0   -65953.027    13557.666 
   27200 1.3190823e-08   -65953.027            0   -65953.027    13557.666 
   27300 1.1050229e-08   -65953.027            0   -65953.027    13557.666 
   27400 1.7404677e-08   -65953.027            0   -65953.027    13557.666 
   27500 1.5475425e-08   -65953.027            0   -65953.027    13557.666 
   27600 1.4770791e-08   -65953.027            0   -65953.027    13557.666 
   27700 2.1570468e-08   -65953.027            0   -65953.027    13557.666 
   27800 1.3770355e-08   -65953.027            0   -65953.027    13557.666 
   27900 1.5127486e-08   -65953.027            0   -65953.027    13557.666 
   28000 9.9385274e-09   -65953.027            0   -65953.027    13557.666 
   28100 1.3682734e-08   -65953.027            0   -65953.027    13557.666 
   28200 5.3077525e-09   -65953.027            0   -65953.027    13557.666 
   28300 1.9746908e-08   -65953.027            0   -65953.027    13557.666 
   28400 1.3355724e-08   -65953.027            0   -65953.027    13557.666 
   28500 1.709242e-08   -65953.027            0   -65953.027    13557.666 
   28600 2.1654721e-08   -65953.027            0   -65953.027    13557.666 
   28700 1.3429762e-08   -65953.027            0   -65953.027    13557.666 
   28800 2.0656468e-08   -65953.027            0   -65953.027    13557.666 
   28900 1.184427e-08   -65953.027            0   -65953.027    13557.666 
   29000 1.7223398e-08   -65953.027            0   -65953.027    13557.666 
   29100 5.1292196e-09   -65953.027            0   -65953.027    13557.666 
   29200 1.6138267e-08   -65953.027            0   -65953.027    13557.666 
   29300 8.897865e-09   -65953.027            0   -65953.027    13557.666 
   29400 1.4590409e-08   -65953.027            0   -65953.027    13557.666 
   29500 2.3071431e-08   -65953.027            0   -65953.027    13557.666 
   29600 1.5376644e-08   -65953.027            0   -65953.027    13557.666 
   29700 2.1637155e-08   -65953.027            0   -65953.027    13557.666 
   29800 1.6196903e-08   -65953.027            0   -65953.027    13557.666 
   29900 1.7117891e-08   -65953.027            0   -65953.027    13557.666 
   30000 9.9265678e-09   -65953.027            0   -65953.027    13557.666 
   30100 1.8302295e-08   -65953.027            0   -65953.027    13557.666 
   30200 7.4818046e-09   -65953.027            0   -65953.027    13557.666 
   30300 1.4743099e-08   -65953.027            0   -65953.027    13557.666 
   30400 1.4721301e-08   -65953.027            0   -65953.027    13557.666 
   30500 1.6709248e-08   -65953.027            0   -65953.027    13557.666 
   30600 2.1255262e-08   -65953.027            0   -65953.027    13557.666 
   30700 2.0275437e-08   -65953.027            0   -65953.027    13557.666 
   30800 2.0816954e-08   -65953.027            0   -65953.027    13557.666 
   30900 1.0674098e-08   -65953.027            0   -65953.027    13557.666 
   31000 2.149075e-08   -65953.027            0   -65953.027    13557.666 
   31100 4.0662883e-09   -65953.027            0   -65953.027    13557.666 
   31200 1.8588619e-08   -65953.027            0   -65953.027    13557.666 
   31300 1.3514379e-08   -65953.027            0   -65953.027    13557.666 
   31400 1.3475004e-08   -65953.027            0   -65953.027    13557.666 
   31500 1.9703975e-08   -65953.027            0   -65953.027    13557.666 
   31600 1.7929143e-08   -65953.027            0   -65953.027    13557.666 
   31700 2.3546588e-08   -65953.027            0   -65953.027    13557.666 
   31800 1.5193194e-08   -65953.027            0   -65953.027    13557.666 
   31900 2.5663832e-08   -65953.027            0   -65953.027    13557.666 
   32000 7.2748578e-09   -65953.027            0   -65953.027    13557.666 
   32100 1.6178009e-08   -65953.027            0   -65953.027    13557.666 
   32200 1.2437106e-08   -65953.027            0   -65953.027    13557.666 
   32300 1.2421193e-08   -65953.027            0   -65953.027    13557.666 
   32400 1.9183533e-08   -65953.027            0   -65953.027    13557.666 
   32500 1.9161981e-08   -65953.027            0   -65953.027    13557.666 
   32600 1.9162577e-08   -65953.027            0   -65953.027    13557.666 
   32700 1.9926174e-08   -65953.027            0   -65953.027    13557.666 
   32800 2.4126615e-08   -65953.027            0   -65953.027    13557.666 
   32900 1.2915259e-08   -65953.027            0   -65953.027    13557.666 
   33000 2.2628171e-08   -65953.027            0   -65953.027    13557.666 
   33100 1.0750059e-08   -65953.027            0   -65953.027    13557.666 
   33200 1.3919641e-08   -65953.027            0   -65953.027    13557.666 
   33300 1.1110363e-08   -65953.027            0   -65953.027    13557.666 
   33400 2.1074148e-08   -65953.027            0   -65953.027    13557.666 
   33500 1.6005239e-08   -65953.027            0   -65953.027    13557.666 
   33600 2.1788031e-08   -65953.027            0   -65953.027    13557.666 
   33700 2.7325835e-08   -65953.027            0   -65953.027    13557.666 
   33800 1.0366683e-08   -65953.027            0   -65953.027    13557.666 
   33900 2.7817924e-08   -65953.027            0   -65953.027    13557.666 
   34000 1.0411974e-08   -65953.027            0   -65953.027    13557.666 
   34100 1.9911235e-08   -65953.027            0   -65953.027    13557.666 
   34200 1.2525569e-08   -65953.027            0   -65953.027    13557.666 
   34300 1.7028272e-08   -65953.027            0   -65953.027    13557.666 
   34400 1.5287113e-08   -65953.027            0   -65953.027    13557.666 
   34500 1.8278529e-08   -65953.027            0   -65953.027    13557.666 
   34600 2.849958e-08   -65953.027            0   -65953.027    13557.666 
   34700 1.4696138e-08   -65953.027            0   -65953.027    13557.666 
   34800 3.0562467e-08   -65953.027            0   -65953.027    13557.666 
   34900 1.349992e-08   -65953.027            0   -65953.027    13557.666 
   35000 1.6467265e-08   -65953.027            0   -65953.027    13557.666 
   35100 1.5456032e-08   -65953.027            0   -65953.027    13557.666 
   35200 1.6610594e-08   -65953.027            0   -65953.027    13557.666 
   35300 1.3604765e-08   -65953.027            0   -65953.027    13557.666 
   35400 2.0585794e-08   -65953.027            0   -65953.027    13557.666 
   35500 2.1035307e-08   -65953.027            0   -65953.027    13557.666 
   35600 1.8493513e-08   -65953.027            0   -65953.027    13557.666 
   35700 2.8899718e-08   -65953.027            0   -65953.027    13557.666 
   35800 2.0802776e-08   -65953.027            0   -65953.027    13557.666 
   35900 2.3341685e-08   -65953.027            0   -65953.027    13557.666 
   36000 1.4218033e-08   -65953.027            0   -65953.027    13557.666 
   36100 1.9273832e-08   -65953.027            0   -65953.027    13557.666 
   36200 6.3421874e-09   -65953.027            0   -65953.027    13557.666 
   36300 2.3252522e-08   -65953.027            0   -65953.027    13557.666 
   36400 1.6323339e-08   -65953.027            0   -65953.027    13557.666 
   36500 1.9723037e-08   -65953.027            0   -65953.027    13557.666 
   36600 3.0537771e-08   -65953.027            0   -65953.027    13557.666 
   36700 1.6694118e-08   -65953.027            0   -65953.027    13557.666 
   36800 3.0236758e-08   -65953.027            0   -65953.027    13557.666 
   36900 1.8365254e-08   -65953.027            0   -65953.027    13557.666 
   37000 2.5823254e-08   -65953.027            0   -65953.027    13557.666 
   37100 8.9822061e-09   -65953.027            0   -65953.027    13557.666 
   37200 2.0360835e-08   -65953.027            0   -65953.027    13557.666 
   37300 1.2568984e-08   -65953.027            0   -65953.027    13557.666 
   37400 1.4354286e-08   -65953.027            0   -65953.027    13557.666 
   37500 2.9600462e-08   -65953.027            0   -65953.027    13557.666 
   37600 1.8899942e-08   -65953.027            0   -65953.027    13557.666 
   37700 2.9893028e-08   -65953.027            0   -65953.027    13557.666 
   37800 2.2322097e-08   -65953.027            0   -65953.027    13557.666 
   37900 2.4994156e-08   -65953.027            0   -65953.027    13557.666 
   38000 1.5797532e-08   -65953.027            0   -65953.027    13557.666 
   38100 2.5119396e-08   -65953.027            0   -65953.027    13557.666 
   38200 1.1377928e-08   -65953.027            0   -65953.027    13557.666 
   38300 1.7605401e-08   -65953.027            0   -65953.027    13557.666 
   38400 1.9942918e-08   -65953.027            0   -65953.027    13557.666 
   38500 1.810601e-08   -65953.027            0   -65953.027    13557.666 
   38600 2.7833793e-08   -65953.027            0   -65953.027    13557.666 
   38700 2.7774533e-08   -65953.027            0   -65953.027    13557.666 
   38800 3.0048444e-08   -65953.027            0   -65953.027    13557.666 
   38900 1.5947017e-08   -65953.027            0   -65953.027    13557.666 
   39000 3.1238959e-08   -65953.027            0   -65953.027    13557.666 
   39100 7.8461681e-09   -65953.027            0   -65953.027    13557.666 
   39200  2.20415e-08   -65953.027            0   -65953.027    13557.666 
   39300 1.8940242e-08   -65953.027            0   -65953.027    13557.666 
   39400 1.5432952e-08   -65953.027            0   -65953.027    13557.666 
   39500 2.490332e-08   -65953.027            0   -65953.027    13557.666 
   39600  2.15795e-08   -65953.027            0   -65953.027    13557.666 
   39700 3.2207821e-08   -65953.027            0   -65953.027    13557.666 
   39800 2.1947139e-08   -65953.027            0   -65953.027    13557.666 
   39900 3.6749239e-08   -65953.027            0   -65953.027    13557.666 
   40000 1.3640963e-08   -65953.027            0   -65953.027    13557.666 
   40100 2.2634182e-08   -65953.027            0   -65953.027    13557.666 
   40200 1.7894995e-08   -65953.027            0   -65953.027    13557.666 
   40300 1.3866141e-08   -65953.027            0   -65953.027    13557.666 
   40400 2.3351285e-08   -65953.027            0   -65953.027    13557.666 
   40500 2.4336104e-08   -65953.027            0   -65953.027    13557.666 
   40600 2.4353056e-08   -65953.027            0   -65953.027    13557.666 
   40700 2.4410459e-08   -65953.027            0   -65953.027    13557.666 
   40800 3.561207e-08   -65953.027            0   -65953.027    13557.666 
   40900 1.863585e-08   -65953.027            0   -65953.027    13557.666 
   41000 3.2580983e-08   -65953.027            0   -65953.027    13557.666 
   41100 1.7905873e-08   -65953.027            0   -65953.027    13557.666 
   41200 2.0198688e-08   -65953.027            0   -65953.027    13557.666 
   41300 1.4289603e-08   -65953.027            0   -65953.027    13557.666 
   41400 2.433813e-08   -65953.027            0   -65953.027    13557.666 
   41500 2.2652564e-08   -65953.027            0   -65953.027    13557.666 
   41600 2.5026455e-08   -65953.027            0   -65953.027    13557.666 
   41700 3.8361599e-08   -65953.027            0   -65953.027    13557.666 
   41800 1.4278466e-08   -65953.027            0   -65953.027    13557.666 
   41900 3.8901198e-08   -65953.027            0   -65953.027    13557.666 
   42000 1.6458729e-08   -65953.027            0   -65953.027    13557.666 
   42100 2.5735494e-08   -65953.027            0   -65953.027    13557.666 
   42200 2.0080914e-08   -65953.027            0   -65953.027    13557.666 
   42300 2.0401416e-08   -65953.027            0   -65953.027    13557.666 
   42400 2.0235713e-08   -65953.027            0   -65953.027    13557.666 
   42500 2.0640526e-08   -65953.027            0   -65953.027    13557.666 
   42600 3.8858463e-08   -65953.027            0   -65953.027    13557.666 
   42700 2.0178164e-08   -65953.027            0   -65953.027    13557.666 
   42800 4.1604695e-08   -65953.027            0   -65953.027    13557.666 
   42900 2.3778684e-08   -65953.027            0   -65953.027    13557.666 
   43000 2.3745877e-08   -65953.027            0   -65953.027    13557.666 
   43100 2.1784352e-08   -65953.027            0   -65953.027    13557.666 
   43200 2.1993815e-08   -65953.027            0   -65953.027    13557.666 
   43300 1.7756673e-08   -65953.027            0   -65953.027    13557.666 
   43400 2.4818246e-08   -65953.027            0   -65953.027    13557.666 
   43500 2.5511476e-08   -65953.027            0   -65953.027    13557.666 
   43600 2.3029645e-08   -65953.027            0   -65953.027    13557.666 
   43700 3.9496222e-08   -65953.027            0   -65953.027    13557.666 
   43800 2.7901881e-08   -65953.027            0   -65953.027    13557.666 
   43900 3.6207503e-08   -65953.027            0   -65953.027    13557.666 
   44000 2.2941135e-08   -65953.027            0   -65953.027    13557.666 
   44100  2.92296e-08   -65953.027            0   -65953.027    13557.666 
   44200 8.4324835e-09   -65953.027            0   -65953.027    13557.666 
   44300 2.9065175e-08   -65953.027            0   -65953.027    13557.666 
   44400 2.2352034e-08   -65953.027            0   -65953.027    13557.666 
   44500 1.9622666e-08   -65953.027            0   -65953.027    13557.666 
   44600 4.2057413e-08   -65953.027            0   -65953.027    13557.666 
   44700 2.052253e-08   -65953.027            0   -65953.027    13557.666 
   44800 4.187079e-08   -65953.027            0   -65953.027    13557.666 
   44900 2.6412745e-08   -65953.027            0   -65953.027    13557.666 
   45000 3.8390297e-08   -65953.027            0   -65953.027    13557.666 
   45100 1.7410259e-08   -65953.027            0   -65953.027    13557.666 
   45200 2.6328198e-08   -65953.027            0   -65953.027    13557.666 
   45300 1.9510018e-08   -65953.027            0   -65953.027    13557.666 
   45400 1.4568689e-08   -65953.027            0   -65953.027    13557.666 
   45500   3.9251e-08   -65953.027            0   -65953.027    13557.666 
   45600 2.206291e-08   -65953.027            0   -65953.027    13557.666 
   45700 4.0344986e-08   -65953.027            0   -65953.027    13557.666 
   45800 3.2705152e-08   -65953.027            0   -65953.027    13557.666 
   45900 3.4768705e-08   -65953.027            0   -65953.027    13557.666 
   46000 2.3930289e-08   -65953.027            0   -65953.027    13557.666 
   46100 3.5959189e-08   -65953.027            0   -65953.027    13557.666 
   46200 1.8665889e-08   -65953.027            0   -65953.027    13557.666 
   46300 2.0108704e-08   -65953.027            0   -65953.027    13557.666 
   46400 2.6715482e-08   -65953.027            0   -65953.027    13557.666 
   46500 2.1085341e-08   -65953.027            0   -65953.027    13557.666 
   46600 3.4067734e-08   -65953.027            0   -65953.027    13557.666 
   46700 3.6019121e-08   -65953.027            0   -65953.027    13557.666 
   46800 4.4742093e-08   -65953.027            0   -65953.027    13557.666 
   46900 2.411991e-08   -65953.027            0   -65953.027    13557.666 
   47000 4.5479661e-08   -65953.027            0   -65953.027    13557.666 
   47100 1.5662415e-08   -65953.027            0   -65953.027    13557.666 
   47200 2.9218167e-08   -65953.027            0   -65953.027    13557.666 
   47300 2.7345151e-08   -65953.027            0   -65953.027    13557.666 
   47400 1.6909236e-08   -65953.027            0   -65953.027    13557.666 
   47500 3.2417717e-08   -65953.027            0   -65953.027    13557.666 
   47600 2.4801683e-08   -65953.027            0   -65953.027    13557.666 
   47700 4.1766824e-08   -65953.027            0   -65953.027    13557.666 
   47800 2.9006921e-08   -65953.027            0   -65953.027    13557.666 
   47900 5.3062561e-08   -65953.027            0   -65953.027    13557.666 
   48000 2.3981021e-08   -65953.027            0   -65953.027    13557.666 
   48100 3.185103e-08   -65953.027            0   -65953.027    13557.666 
   48200 2.8710227e-08   -65953.027            0   -65953.027    13557.666 
   48300 1.8124381e-08   -65953.027            0   -65953.027    13557.666 
   48400 2.9843089e-08   -65953.027            0   -65953.027    13557.666 
   48500 2.9231334e-08   -65953.027            0   -65953.027    13557.666 
   48600 3.3883504e-08   -65953.027            0   -65953.027    13557.666 
   48700 2.8763968e-08   -65953.027            0   -65953.027    13557.666 
   48800 4.8323236e-08   -65953.027            0   -65953.027    13557.666 
   48900 2.7411275e-08   -65953.027            0   -65953.027    13557.666 
   49000 4.6305624e-08   -65953.027            0   -65953.027    13557.666 
   49100 2.8810751e-08   -65953.027            0   -65953.027    13557.666 
   49200 2.7841612e-08   -65953.027            0   -65953.027    13557.666 
   49300 2.275377e-08   -65953.027            0   -65953.027    13557.666 
   49400 2.8311118e-08   -65953.027            0   -65953.027    13557.666 
   49500 3.0227291e-08   -65953.027            0   -65953.027    13557.666 
   49600 3.0136695e-08   -65953.027            0   -65953.027    13557.666 
   49700 5.411585e-08   -65953.027            0   -65953.027    13557.666 
   49800 1.9914699e-08   -65953.027            0   -65953.027    13557.666 
   49900 5.3148895e-08   -65953.027            0   -65953.027    13557.666 
   50000 2.8650789e-08   -65953.027            0   -65953.027    13557.666 
   50100 3.4121211e-08   -65953.027            0   -65953.027    13557.666 
   50200 3.1090772e-08   -65953.027            0   -65953.027    13557.666 
   50300 2.545923e-08   -65953.027            0   -65953.027    13557.666 
   50400 2.7818064e-08   -65953.027            0   -65953.027    13557.666 
   50500 2.2388136e-08   -65953.027            0   -65953.027    13557.666 
   50600 4.868475e-08   -65953.027            0   -65953.027    13557.666 
   50700 2.8240157e-08   -65953.027            0   -65953.027    13557.666 
   50800 5.635826e-08   -65953.027            0   -65953.027    13557.666 
   50900 3.7323068e-08   -65953.027            0   -65953.027    13557.666 
   51000 3.592253e-08   -65953.027            0   -65953.027    13557.666 
   51100 3.4363366e-08   -65953.027            0   -65953.027    13557.666 
   51200 3.2028871e-08   -65953.027            0   -65953.027    13557.666 
   51300 2.2999007e-08   -65953.027            0   -65953.027    13557.666 
   51400 3.2801329e-08   -65953.027            0   -65953.027    13557.666 
   51500 3.3570904e-08   -65953.027            0   -65953.027    13557.666 
   51600 2.3869361e-08   -65953.027            0   -65953.027    13557.666 
   51700 5.3122494e-08   -65953.027            0   -65953.027    13557.666 
   51800 3.7659625e-08   -65953.027            0   -65953.027    13557.666 
   51900 5.1875243e-08   -65953.027            0   -65953.027    13557.666 
   52000 3.4931059e-08   -65953.027            0   -65953.027    13557.666 
   52100 4.5750987e-08   -65953.027            0   -65953.027    13557.666 
   52200 1.5523548e-08   -65953.027            0   -65953.027    13557.666 
   52300 3.5321545e-08   -65953.027            0   -65953.027    13557.666 
   52400 3.3224274e-08   -65953.027            0   -65953.027    13557.666 
   52500 2.0288447e-08   -65953.027            0   -65953.027    13557.666 
   52600 5.6944622e-08   -65953.027            0   -65953.027    13557.666 
   52700 2.3944345e-08   -65953.027            0   -65953.027    13557.666 
   52800 5.7058129e-08   -65953.027            0   -65953.027    13557.666 
   52900 3.928699e-08   -65953.027            0   -65953.027    13557.666 
   53000 5.3213949e-08   -65953.027            0   -65953.027    13557.666 
   53100 3.1506081e-08   -65953.027            0   -65953.027    13557.666 
   53200 3.6380834e-08   -65953.027            0   -65953.027    13557.666 
   53300 3.1602991e-08   -65953.027            0   -65953.027    13557.666 
   53400 1.2984924e-08   -65953.027            0   -65953.027    13557.666 
   53500 5.1249653e-08   -65953.027            0   -65953.027    13557.666 
   53600 2.9219417e-08   -65953.027            0   -65953.027    13557.666 
   53700 4.9842602e-08   -65953.027            0   -65953.027    13557.666 
   53800 4.6949782e-08   -65953.027            0   -65953.027    13557.666 
   53900 5.1463565e-08   -65953.027            0   -65953.027    13557.666 
   54000 3.5918725e-08   -65953.027            0   -65953.027    13557.666 
   54100 5.1630334e-08   -65953.027            0   -65953.027    13557.666 
   54200 3.1836653e-08   -65953.027            0   -65953.027    13557.666 
   54300 2.787631e-08   -65953.027            0   -65953.027    13557.666 
   54400 3.4306407e-08   -65953.027            0   -65953.027    13557.666 
   54500 2.3264427e-08   -65953.027            0   -65953.027    13557.666 
   54600 4.3167062e-08   -65953.027            0   -65953.027    13557.666 
   54700 4.3088308e-08   -65953.027            0   -65953.027    13557.666 
   54800 6.187194e-08   -65953.027            0   -65953.027    13557.666 
   54900 3.5758939e-08   -65953.027            0   -65953.027    13557.666 
   55000 6.7491142e-08   -65953.027            0   -65953.027    13557.666 
   55100 2.7678495e-08   -65953.027            0   -65953.027    13557.666 
   55200 4.099408e-08   -65953.027            0   -65953.027    13557.666 
   55300 4.3767921e-08   -65953.027            0   -65953.027    13557.666 
   55400 2.0709549e-08   -65953.027            0   -65953.027    13557.666 
   55500 4.3073703e-08   -65953.027            0   -65953.027    13557.666 
   55600 2.7249479e-08   -65953.027            0   -65953.027    13557.666 
   55700 5.619265e-08   -65953.027            0   -65953.027    13557.666 
   55800 3.4697994e-08   -65953.027            0   -65953.027    13557.666 
   55900 7.2397066e-08   -65953.027            0   -65953.027    13557.666 
   56000 4.1282511e-08   -65953.027            0   -65953.027    13557.666 
   56100 4.4865049e-08   -65953.027            0   -65953.027    13557.666 
   56200 4.5613938e-08   -65953.027            0   -65953.027    13557.666 
   56300 2.4082004e-08   -65953.027            0   -65953.027    13557.666 
   56400 4.342336e-08   -65953.027            0   -65953.027    13557.666 
   56500 3.5342413e-08   -65953.027            0   -65953.027    13557.666 
   56600 4.4695637e-08   -65953.027            0   -65953.027    13557.666 
   56700 3.7002389e-08   -65953.027            0   -65953.027    13557.666 
   56800 6.5302347e-08   -65953.027            0   -65953.027    13557.666 
   56900 3.7102236e-08   -65953.027            0   -65953.027    13557.666 
   57000 6.5196011e-08   -65953.027            0   -65953.027    13557.666 
   57100 4.8283329e-08   -65953.027            0   -65953.027    13557.666 
   57200 3.7908206e-08   -65953.027            0   -65953.027    13557.666 
   57300 3.5526719e-08   -65953.027            0   -65953.027    13557.666 
   57400 3.4942439e-08   -65953.027            0   -65953.027    13557.666 
   57500 4.1003711e-08   -65953.027            0   -65953.027    13557.666 
   57600 3.3896189e-08   -65953.027            0   -65953.027    13557.666 
   57700 7.3895653e-08   -65953.027            0   -65953.027    13557.666 
   57800 3.0298967e-08   -65953.027            0   -65953.027    13557.666 
   57900 7.1340382e-08   -65953.027            0   -65953.027    13557.666 
   58000 4.691685e-08   -65953.027            0   -65953.027    13557.666 
   58100 4.8838647e-08   -65953.027            0   -65953.027    13557.666 
   58200 5.0079039e-08   -65953.027            0   -65953.027    13557.666 
   58300 3.4903085e-08   -65953.027            0   -65953.027    13557.666 
   58400 3.8299969e-08   -65953.027            0   -65953.027    13557.666 
   58500 2.5576668e-08   -65953.027            0   -65953.027    13557.666 
   58600 6.1625513e-08   -65953.027            0   -65953.027    13557.666 
   58700 3.2424427e-08   -65953.027            0   -65953.027    13557.666 
   58800 7.5395047e-08   -65953.027            0   -65953.027    13557.666 
   58900 5.7393031e-08   -65953.027            0   -65953.027    13557.666 
   59000 5.0881098e-08   -65953.027            0   -65953.027    13557.666 
   59100 5.3201259e-08   -65953.027            0   -65953.027    13557.666 
   59200 5.0409961e-08   -65953.027            0   -65953.027    13557.666 
   59300 3.4924007e-08   -65953.027            0   -65953.027    13557.666 
   59400 4.2041439e-08   -65953.027            0   -65953.027    13557.666 
   59500 4.889682e-08   -65953.027            0   -65953.027    13557.666 
   59600 2.5931543e-08   -65953.027            0   -65953.027    13557.666 
   59700 6.8637035e-08   -65953.027            0   -65953.027    13557.666 
   59800 4.8063937e-08   -65953.027            0   -65953.027    13557.666 
   59900 7.4006483e-08   -65953.027            0   -65953.027    13557.666 
   60000 5.2749023e-08   -65953.027            0   -65953.027    13557.666 
   60100 6.5900706e-08   -65953.027            0   -65953.027    13557.666 
   60200 3.1392469e-08   -65953.027            0   -65953.027    13557.666 
   60300 4.3794183e-08   -65953.027            0   -65953.027    13557.666 
   60400 5.1070584e-08   -65953.027            0   -65953.027    13557.666 
   60500 1.9133689e-08   -65953.027            0   -65953.027    13557.666 
   60600 7.7006949e-08   -65953.027            0   -65953.027    13557.666 
   60700 3.2138633e-08   -65953.027            0   -65953.027    13557.666 
   60800 7.1352405e-08   -65953.027            0   -65953.027    13557.666 
   60900 5.9210291e-08   -65953.027            0   -65953.027    13557.666 
   61000 7.5358144e-08   -65953.027            0   -65953.027    13557.666 
   61100 5.3739915e-08   -65953.027            0   -65953.027    13557.666 
   61200 5.0829996e-08   -65953.027            0   -65953.027    13557.666 
   61300 5.2231435e-08   -65953.027            0   -65953.027    13557.666 
   61400 1.5040662e-08   -65953.027            0   -65953.027    13557.666 
   61500 6.2196043e-08   -65953.027            0   -65953.027    13557.666 
   61600 3.7177138e-08   -65953.027            0   -65953.027    13557.666 
   61700 6.284324e-08   -65953.027            0   -65953.027    13557.666 
   61800 6.3560978e-08   -65953.027            0   -65953.027    13557.666 
   61900 7.0754649e-08   -65953.027            0   -65953.027    13557.666 
   62000 5.6276636e-08   -65953.027            0   -65953.027    13557.666 
   62100 7.7791284e-08   -65953.027            0   -65953.027    13557.666 
   62200 5.1133985e-08   -65953.027            0   -65953.027    13557.666 
   62300 4.4159199e-08   -65953.027            0   -65953.027    13557.666 
   62400 5.1208714e-08   -65953.027            0   -65953.027    13557.666 
   62500 2.6468891e-08   -65953.027            0   -65953.027    13557.666 
   62600 5.2967252e-08   -65953.027            0   -65953.027    13557.666 
   62700 4.9569605e-08   -65953.027            0   -65953.027    13557.666 
   62800 8.4877456e-08   -65953.027            0   -65953.027    13557.666 
   62900 4.556676e-08   -65953.027            0   -65953.027    13557.666 
   63000 9.550143e-08   -65953.027            0   -65953.027    13557.666 
   63100 4.9579357e-08   -65953.027            0   -65953.027    13557.666 
   63200 5.6150173e-08   -65953.027            0   -65953.027    13557.666 
   63300 7.0396564e-08   -65953.027            0   -65953.027    13557.666 
   63400 2.8323357e-08   -65953.027            0   -65953.027    13557.666 
   63500 6.411564e-08   -65953.027            0   -65953.027    13557.666 
   63600 3.0634035e-08   -65953.027            0   -65953.027    13557.666 
   63700 7.2086354e-08   -65953.027            0   -65953.027    13557.666 
   63800 4.6431171e-08   -65953.027            0   -65953.027    13557.666 
   63900 9.6098532e-08   -65953.027            0   -65953.027    13557.666 
   64000 6.3249963e-08   -65953.027            0   -65953.027    13557.666 
   64100 6.3883664e-08   -65953.027            0   -65953.027    13557.666 
   64200  7.50493e-08   -65953.027            0   -65953.027    13557.666 
   64300 3.0802454e-08   -65953.027            0   -65953.027    13557.666 
   64400 6.0929471e-08   -65953.027            0   -65953.027    13557.666 
   64500 4.8377742e-08   -65953.027            0   -65953.027    13557.666 
   64600 5.8337114e-08   -65953.027            0   -65953.027    13557.666 
   64700 4.445219e-08   -65953.027            0   -65953.027    13557.666 
   64800 8.8077171e-08   -65953.027            0   -65953.027    13557.666 
   64900 5.4317334e-08   -65953.027            0   -65953.027    13557.666 
   65000 8.7674633e-08   -65953.027            0   -65953.027    13557.666 
   65100 7.7490148e-08   -65953.027            0   -65953.027    13557.666 
   65200 5.9903624e-08   -65953.027            0   -65953.027    13557.666 
   65300 5.542884e-08   -65953.027            0   -65953.027    13557.666 
   65400 4.5295746e-08   -65953.027            0   -65953.027    13557.666 
   65500 5.6310072e-08   -65953.027            0   -65953.027    13557.666 
   65600 3.8275002e-08   -65953.027            0   -65953.027    13557.666 
   65700 9.7888758e-08   -65953.027            0   -65953.027    13557.666 
   65800 3.8585092e-08   -65953.027            0   -65953.027    13557.666 
   65900 9.6907553e-08   -65953.027            0   -65953.027    13557.666 
   66000 7.3410997e-08   -65953.027            0   -65953.027    13557.666 
   66100 6.7519409e-08   -65953.027            0   -65953.027    13557.666 
   66200 8.0729361e-08   -65953.027            0   -65953.027    13557.666 
   66300 5.5659745e-08   -65953.027            0   -65953.027    13557.666 
   66400 5.8226412e-08   -65953.027            0   -65953.027    13557.666 
   66500 2.839382e-08   -65953.027            0   -65953.027    13557.666 
   66600 8.3632753e-08   -65953.027            0   -65953.027    13557.666 
   66700 3.7898077e-08   -65953.027            0   -65953.027    13557.666 
   66800 9.461394e-08   -65953.027            0   -65953.027    13557.666 
   66900 8.2807502e-08   -65953.027            0   -65953.027    13557.666 
   67000 7.4433623e-08   -65953.027            0   -65953.027    13557.666 
   67100 7.7903559e-08   -65953.027            0   -65953.027    13557.666 
   67200 7.2563666e-08   -65953.027            0   -65953.027    13557.666 
   67300 5.993236e-08   -65953.027            0   -65953.027    13557.666 
   67400 5.4696477e-08   -65953.027            0   -65953.027    13557.666 
   67500 7.1762133e-08   -65953.027            0   -65953.027    13557.666 
   67600 2.864364e-08   -65953.027            0   -65953.027    13557.666 
   67700 9.1408351e-08   -65953.027            0   -65953.027    13557.666 
   67800 6.2025544e-08   -65953.027            0   -65953.027    13557.666 
   67900 9.8763477e-08   -65953.027            0   -65953.027    13557.666 
   68000 8.3841779e-08   -65953.027            0   -65953.027    13557.666 
   68100 9.5534266e-08   -65953.027            0   -65953.027    13557.666 
   68200 5.7867901e-08   -65953.027            0   -65953.027    13557.666 
   68300 5.6500312e-08   -65953.027            0   -65953.027    13557.666 
   68400 8.0537661e-08   -65953.027            0   -65953.027    13557.666 
   68500 1.8628723e-08   -65953.027            0   -65953.027    13557.666 
   68600 9.8246127e-08   -65953.027            0   -65953.027    13557.666 
   68700 4.3226545e-08   -65953.027            0   -65953.027    13557.666 
   68800 8.8455096e-08   -65953.027            0   -65953.027    13557.666 
   68900 8.3501217e-08   -65953.027            0   -65953.027    13557.666 
   69000 1.0168066e-07   -65953.027            0   -65953.027    13557.666 
   69100 9.2139749e-08   -65953.027            0   -65953.027    13557.666 
   69200 7.6879798e-08   -65953.027            0   -65953.027    13557.666 
   69300 8.3212636e-08   -65953.027            0   -65953.027    13557.666 
   69400 2.5768795e-08   -65953.027            0   -65953.027    13557.666 
   69500 8.2052023e-08   -65953.027            0   -65953.027    13557.666 
   69600 4.5467046e-08   -65953.027            0   -65953.027    13557.666 
   69700 7.5481916e-08   -65953.027            0   -65953.027    13557.666 
   69800 8.5062213e-08   -65953.027            0   -65953.027    13557.666 
   69900 9.5129251e-08   -65953.027            0   -65953.027    13557.666 
   70000 7.6469152e-08   -65953.027            0   -65953.027    13557.666 
   70100 1.1519761e-07   -65953.027            0   -65953.027    13557.666 
   70200 8.5346819e-08   -65953.027            0   -65953.027    13557.666 
   70300 6.6689042e-08   -65953.027            0   -65953.027    13557.666 
   70400 8.3334241e-08   -65953.027            0   -65953.027    13557.666 
   70500 3.5451191e-08   -65953.027            0   -65953.027    13557.666 
   70600 7.1762308e-08   -65953.027            0   -65953.027    13557.666 
   70700 5.4662237e-08   -65953.027            0   -65953.027    13557.666 
   70800 1.1304764e-07   -65953.027            0   -65953.027    13557.666 
   70900 6.253646e-08   -65953.027            0   -65953.027    13557.666 
   71000 1.2764048e-07   -65953.027            0   -65953.027    13557.666 
   71100 8.1626484e-08   -65953.027            0   -65953.027    13557.666 
   71200 7.5310601e-08   -65953.027            0   -65953.027    13557.666 
   71300 1.1515998e-07   -65953.027            0   -65953.027    13557.666 
   71400 3.7398702e-08   -65953.027            0   -65953.027    13557.666 
   71500 9.3069426e-08   -65953.027            0   -65953.027    13557.666 
   71600 4.3470573e-08   -65953.027            0   -65953.027    13557.666 
   71700 8.9576035e-08   -65953.027            0   -65953.027    13557.666 
   71800 5.9369551e-08   -65953.027            0   -65953.027    13557.666 
   71900 1.2614271e-07   -65953.027            0   -65953.027    13557.666 
   72000 1.0164401e-07   -65953.027            0   -65953.027    13557.666 
   72100 8.5381017e-08   -65953.027            0   -65953.027    13557.666 
   72200 1.2051805e-07   -65953.027            0   -65953.027    13557.666 
   72300 5.2115751e-08   -65953.027            0   -65953.027    13557.666 
   72400 8.3775409e-08   -65953.027            0   -65953.027    13557.666 
   72500 6.7945221e-08   -65953.027            0   -65953.027    13557.666 
   72600 7.7770212e-08   -65953.027            0   -65953.027    13557.666 
   72700 5.6176106e-08   -65953.027            0   -65953.027    13557.666 
   72800 1.1136393e-07   -65953.027            0   -65953.027    13557.666 
   72900 7.3205979e-08   -65953.027            0   -65953.027    13557.666 
   73000 1.2081993e-07   -65953.027            0   -65953.027    13557.666 
   73100 1.1706287e-07   -65953.027            0   -65953.027    13557.666 
   73200 9.2750837e-08   -65953.027            0   -65953.027    13557.666 
   73300  9.07938e-08   -65953.027            0   -65953.027    13557.666 
   73400 6.8158521e-08   -65953.027            0   -65953.027    13557.666 
   73500 8.1257591e-08   -65953.027            0   -65953.027    13557.666 
   73600 4.0677522e-08   -65953.027            0   -65953.027    13557.666 
   73700 1.3453469e-07   -65953.027            0   -65953.027    13557.666 
   73800 4.935695e-08   -65953.027            0   -65953.027    13557.666 
   73900 1.2189217e-07   -65953.027            0   -65953.027    13557.666 
   74000 1.0990108e-07   -65953.027            0   -65953.027    13557.666 
   74100 9.6052024e-08   -65953.027            0   -65953.027    13557.666 
   74200 1.2260131e-07   -65953.027            0   -65953.027    13557.666 
   74300 8.3684528e-08   -65953.027            0   -65953.027    13557.666 
   74400 9.9207331e-08   -65953.027            0   -65953.027    13557.666 
   74500 3.6651654e-08   -65953.027            0   -65953.027    13557.666 
   74600 1.1104326e-07   -65953.027            0   -65953.027    13557.666 
   74700 4.7726032e-08   -65953.027            0   -65953.027    13557.666 
   74800 1.2275298e-07   -65953.027            0   -65953.027    13557.666 
   74900 1.1481103e-07   -65953.027            0   -65953.027    13557.666 
   75000 1.0106912e-07   -65953.027            0   -65953.027    13557.666 
   75100 1.2192198e-07   -65953.027            0   -65953.027    13557.666 
   75200 1.0314309e-07   -65953.027            0   -65953.027    13557.666 
   75300 9.4508025e-08   -65953.027            0   -65953.027    13557.666 
   75400 7.6789961e-08   -65953.027            0   -65953.027    13557.666 
   75500 1.0860603e-07   -65953.027            0   -65953.027    13557.666 
   75600 3.1974276e-08   -65953.027            0   -65953.027    13557.666 
   75700 1.1470805e-07   -65953.027            0   -65953.027    13557.666 
   75800 8.3450989e-08   -65953.027            0   -65953.027    13557.666 
   75900 1.2922831e-07   -65953.027            0   -65953.027    13557.666 
   76000 1.2308929e-07   -65953.027            0   -65953.027    13557.666 
   76100 1.3960514e-07   -65953.027            0   -65953.027    13557.666 
   76200 1.0652234e-07   -65953.027            0   -65953.027    13557.666 
   76300 7.996129e-08   -65953.027            0   -65953.027    13557.666 
   76400 1.2422926e-07   -65953.027            0   -65953.027    13557.666 
   76500 2.6331921e-08   -65953.027            0   -65953.027    13557.666 
   76600 1.3066046e-07   -65953.027            0   -65953.027    13557.666 
   76700 5.3228058e-08   -65953.027            0   -65953.027    13557.666 
   76800 1.0353228e-07   -65953.027            0   -65953.027    13557.666 
   76900 1.1734822e-07   -65953.027            0   -65953.027    13557.666 
   77000 1.316435e-07   -65953.027            0   -65953.027    13557.666 
   77100 1.3690253e-07   -65953.027            0   -65953.027    13557.666 
   77200 1.2310215e-07   -65953.027            0   -65953.027    13557.666 
   77300 1.3717299e-07   -65953.027            0   -65953.027    13557.666 
   77400 4.2419634e-08   -65953.027            0   -65953.027    13557.666 
   77500 1.1891644e-07   -65953.027            0   -65953.027    13557.666 
   77600 6.4021967e-08   -65953.027            0   -65953.027    13557.666 
   77700 9.3764625e-08   -65953.027            0   -65953.027    13557.666 
   77800 1.0543373e-07   -65953.027            0   -65953.027    13557.666 
   77900 1.2980572e-07   -65953.027            0   -65953.027    13557.666 
   78000 1.0352408e-07   -65953.027            0   -65953.027    13557.666 
   78100 1.5447463e-07   -65953.027            0   -65953.027    13557.666 
   78200 1.3898521e-07   -65953.027            0   -65953.027    13557.666 
   78300 9.9763514e-08   -65953.027            0   -65953.027    13557.666 
   78400 1.377364e-07   -65953.027            0   -65953.027    13557.666 
   78500 4.950413e-08   -65953.027            0   -65953.027    13557.666 
   78600 1.0316533e-07   -65953.027            0   -65953.027    13557.666 
   78700 6.7594973e-08   -65953.027            0   -65953.027    13557.666 
   78800 1.4581859e-07   -65953.027            0   -65953.027    13557.666 
   78900 8.5373969e-08   -65953.027            0   -65953.027    13557.666 
   79000 1.7036604e-07   -65953.027            0   -65953.027    13557.666 
   79100 1.3583072e-07   -65953.027            0   -65953.027    13557.666 
   79200 9.2387999e-08   -65953.027            0   -65953.027    13557.666 
   79300 1.8559447e-07   -65953.027            0   -65953.027    13557.666 
   79400 6.0640462e-08   -65953.027            0   -65953.027    13557.666 
   79500 1.2987006e-07   -65953.027            0   -65953.027    13557.666 
   79600 6.4005895e-08   -65953.027            0   -65953.027    13557.666 
   79700 1.1195346e-07   -65953.027            0   -65953.027    13557.666 
   79800 7.8848075e-08   -65953.027            0   -65953.027    13557.666 
   79900 1.5062045e-07   -65953.027            0   -65953.027    13557.666 
   80000 1.5648648e-07   -65953.027            0   -65953.027    13557.666 
   80100 1.2266923e-07   -65953.027            0   -65953.027    13557.666 
   80200 1.8157757e-07   -65953.027            0   -65953.027    13557.666 
   80300 9.2090276e-08   -65953.027            0   -65953.027    13557.666 
   80400 1.2700868e-07   -65953.027            0   -65953.027    13557.666 
   80500 1.031763e-07   -65953.027            0   -65953.027    13557.666 
   80600 1.0763341e-07   -65953.027            0   -65953.027    13557.666 
   80700 7.161038e-08   -65953.027            0   -65953.027    13557.666 
   80800 1.453635e-07   -65953.027            0   -65953.027    13557.666 
   80900 9.1706234e-08   -65953.027            0   -65953.027    13557.666 
   81000 1.5350971e-07   -65953.027            0   -65953.027    13557.666 
   81100 1.7334332e-07   -65953.027            0   -65953.027    13557.666 
   81200 1.395264e-07   -65953.027            0   -65953.027    13557.666 
   81300 1.4382166e-07   -65953.027            0   -65953.027    13557.666 
   81400 1.0345811e-07   -65953.027            0   -65953.027    13557.666 
   81500 1.3151788e-07   -65953.027            0   -65953.027    13557.666 
   81600 4.7627566e-08   -65953.027            0   -65953.027    13557.666 
   81700 1.8198302e-07   -65953.027            0   -65953.027    13557.666 
   81800 6.9882634e-08   -65953.027            0   -65953.027    13557.666 
   81900 1.5645663e-07   -65953.027            0   -65953.027    13557.666 
   82000 1.5747512e-07   -65953.027            0   -65953.027    13557.666 
   82100 1.2423008e-07   -65953.027            0   -65953.027    13557.666 
   82200 1.9505111e-07   -65953.027            0   -65953.027    13557.666 
   82300 1.1961134e-07   -65953.027            0   -65953.027    13557.666 
   82400 1.5656151e-07   -65953.027            0   -65953.027    13557.666 
   82500 5.9915517e-08   -65953.027            0   -65953.027    13557.666 
   82600 1.5034642e-07   -65953.027            0   -65953.027    13557.666 
   82700 6.1947439e-08   -65953.027            0   -65953.027    13557.666 
   82800 1.4896088e-07   -65953.027            0   -65953.027    13557.666 
   82900 1.6978056e-07   -65953.027            0   -65953.027    13557.666 
   83000 1.3422737e-07   -65953.027            0   -65953.027    13557.666 
   83100 1.7989084e-07   -65953.027            0   -65953.027    13557.666 
   83200 1.572444e-07   -65953.027            0   -65953.027    13557.666 
   83300 1.5217039e-07   -65953.027            0   -65953.027    13557.666 
   83400 1.1308988e-07   -65953.027            0   -65953.027    13557.666 
   83500 1.6351967e-07   -65953.027            0   -65953.027    13557.666 
   83600 4.6687483e-08   -65953.027            0   -65953.027    13557.666 
   83700 1.4273752e-07   -65953.027            0   -65953.027    13557.666 
   83800 1.0323527e-07   -65953.027            0   -65953.027    13557.666 
   83900 1.5803884e-07   -65953.027            0   -65953.027    13557.666 
   84000 1.7793976e-07   -65953.027            0   -65953.027    13557.666 
   84100 1.9573932e-07   -65953.027            0   -65953.027    13557.666 
   84200 1.7053854e-07   -65953.027            0   -65953.027    13557.666 
   84300 1.3116318e-07   -65953.027            0   -65953.027    13557.666 
   84400 1.9854932e-07   -65953.027            0   -65953.027    13557.666 
   84500 4.1873904e-08   -65953.027            0   -65953.027    13557.666 
   84600 1.8559939e-07   -65953.027            0   -65953.027    13557.666 
   84700 8.0870024e-08   -65953.027            0   -65953.027    13557.666 
   84800 1.201137e-07   -65953.027            0   -65953.027    13557.666 
   84900 1.4926721e-07   -65953.027            0   -65953.027    13557.666 
   85000 1.7377138e-07   -65953.027            0   -65953.027    13557.666 
   85100 1.9635144e-07   -65953.027            0   -65953.027    13557.666 
   85200 1.7131812e-07   -65953.027            0   -65953.027    13557.666 
   85300  2.23981e-07   -65953.027            0   -65953.027    13557.666 
   85400 7.7955827e-08   -65953.027            0   -65953.027    13557.666 
   85500 1.7238302e-07   -65953.027            0   -65953.027    13557.666 
   85600 9.3936552e-08   -65953.027            0   -65953.027    13557.666 
   85700 1.2747923e-07   -65953.027            0   -65953.027    13557.666 
   85800 1.3716254e-07   -65953.027            0   -65953.027    13557.666 
   85900 1.6999706e-07   -65953.027            0   -65953.027    13557.666 
   86000 1.4043925e-07   -65953.027            0   -65953.027    13557.666 
   86100 2.0937681e-07   -65953.027            0   -65953.027    13557.666 
   86200 2.1802056e-07   -65953.027            0   -65953.027    13557.666 
   86300 1.3882762e-07   -65953.027            0   -65953.027    13557.666 
   86400 2.3013818e-07   -65953.027            0   -65953.027    13557.666 
   86500 8.1579091e-08   -65953.027            0   -65953.027    13557.666 
   86600 1.4261163e-07   -65953.027            0   -65953.027    13557.666 
   86700 8.6962658e-08   -65953.027            0   -65953.027    13557.666 
   86800 1.8826749e-07   -65953.027            0   -65953.027    13557.666 
   86900 1.1873058e-07   -65953.027            0   -65953.027    13557.666 
   87000 2.0835192e-07   -65953.027            0   -65953.027    13557.666 
   87100 2.2097506e-07   -65953.027            0   -65953.027    13557.666 
   87200 1.274834e-07   -65953.027            0   -65953.027    13557.666 
   87300 2.7691449e-07   -65953.027            0   -65953.027    13557.666 
   87400 1.0951374e-07   -65953.027            0   -65953.027    13557.666 
   87500 1.9948452e-07   -65953.027            0   -65953.027    13557.666 
   87600 1.0183875e-07   -65953.027            0   -65953.027    13557.666 
   87700 1.3839897e-07   -65953.027            0   -65953.027    13557.666 
   87800 1.0775794e-07   -65953.027            0   -65953.027    13557.666 
   87900 1.7964853e-07   -65953.027            0   -65953.027    13557.666 
   88000 2.1355368e-07   -65953.027            0   -65953.027    13557.666 
   88100 1.6577403e-07   -65953.027            0   -65953.027    13557.666 
   88200 2.7327479e-07   -65953.027            0   -65953.027    13557.666 
   88300 1.5049239e-07   -65953.027            0   -65953.027    13557.666 
   88400 1.8962869e-07   -65953.027            0   -65953.027    13557.666 
   88500  1.67014e-07   -65953.027            0   -65953.027    13557.666 
   88600 1.6898139e-07   -65953.027            0   -65953.027    13557.666 
   88700 9.3606024e-08   -65953.027            0   -65953.027    13557.666 
   88800 1.9771965e-07   -65953.027            0   -65953.027    13557.666 
   88900 1.2110425e-07   -65953.027            0   -65953.027    13557.666 
   89000 1.9300407e-07   -65953.027            0   -65953.027    13557.666 
   89100 2.4425085e-07   -65953.027            0   -65953.027    13557.666 
   89200 1.9498152e-07   -65953.027            0   -65953.027    13557.666 
   89300 2.3953634e-07   -65953.027            0   -65953.027    13557.666 
   89400 1.4412589e-07   -65953.027            0   -65953.027    13557.666 
   89500 2.0746646e-07   -65953.027            0   -65953.027    13557.666 
   89600 6.9997194e-08   -65953.027            0   -65953.027    13557.666 
   89700  2.46285e-07   -65953.027            0   -65953.027    13557.666 
   89800 1.0008744e-07   -65953.027            0   -65953.027    13557.666 
   89900 1.9088701e-07   -65953.027            0   -65953.027    13557.666 
   90000 2.4344054e-07   -65953.027            0   -65953.027    13557.666 
   90100 1.4824806e-07   -65953.027            0   -65953.027    13557.666 
   90200 2.940876e-07   -65953.027            0   -65953.027    13557.666 
   90300 1.8880228e-07   -65953.027            0   -65953.027    13557.666 
   90400 2.4597237e-07   -65953.027            0   -65953.027    13557.666 
   90500 9.8986355e-08   -65953.027            0   -65953.027    13557.666 
   90600 2.1015323e-07   -65953.027            0   -65953.027    13557.666 
   90700 9.6215812e-08   -65953.027            0   -65953.027    13557.666 
   90800 1.6548728e-07   -65953.027            0   -65953.027    13557.666 
   90900 2.4064614e-07   -65953.027            0   -65953.027    13557.666 
   91000 1.7462642e-07   -65953.027            0   -65953.027    13557.666 
   91100 2.5969897e-07   -65953.027            0   -65953.027    13557.666 
   91200 2.3127198e-07   -65953.027            0   -65953.027    13557.666 
   91300 2.3581639e-07   -65953.027            0   -65953.027    13557.666 
   91400 1.8805648e-07   -65953.027            0   -65953.027    13557.666 
   91500 2.5257267e-07   -65953.027            0   -65953.027    13557.666 
   91600 7.8328286e-08   -65953.027            0   -65953.027    13557.666 
   91700 1.9117196e-07   -65953.027            0   -65953.027    13557.666 
   91800 1.3622976e-07   -65953.027            0   -65953.027    13557.666 
   91900 1.8312956e-07   -65953.027            0   -65953.027    13557.666 
   92000 2.3468787e-07   -65953.027            0   -65953.027    13557.666 
   92100 2.7333746e-07   -65953.027            0   -65953.027    13557.666 
   92200 2.6164938e-07   -65953.027            0   -65953.027    13557.666 
   92300 1.8662141e-07   -65953.027            0   -65953.027    13557.666 
   92400 3.2302337e-07   -65953.027            0   -65953.027    13557.666 
   92500 8.3567556e-08   -65953.027            0   -65953.027    13557.666 
   92600 2.616889e-07   -65953.027            0   -65953.027    13557.666 
   92700 1.3433096e-07   -65953.027            0   -65953.027    13557.666 
   92800 1.5421719e-07   -65953.027            0   -65953.027    13557.666 
   92900 1.9581994e-07   -65953.027            0   -65953.027    13557.666 
   93000 2.1194915e-07   -65953.027            0   -65953.027    13557.666 
   93100 2.8329253e-07   -65953.027            0   -65953.027    13557.666 
   93200 2.3852642e-07   -65953.027            0   -65953.027    13557.666 
   93300 3.4530272e-07   -65953.027            0   -65953.027    13557.666 
   93400 1.3369471e-07   -65953.027            0   -65953.027    13557.666 
   93500 2.6349952e-07   -65953.027            0   -65953.027    13557.666 
   93600 1.4826556e-07   -65953.027            0   -65953.027    13557.666 
   93700 1.6473333e-07   -65953.027            0   -65953.027    13557.666 
   93800 1.8915973e-07   -65953.027            0   -65953.027    13557.666 
   93900 2.2137219e-07   -65953.027            0   -65953.027    13557.666 
   94000 1.9066272e-07   -65953.027            0   -65953.027    13557.666 
   94100 2.6440899e-07   -65953.027            0   -65953.027    13557.666 
   94200 3.3785982e-07   -65953.027            0   -65953.027    13557.666 
   94300 2.085114e-07   -65953.027            0   -65953.027    13557.666 
   94400 3.5480007e-07   -65953.027            0   -65953.027    13557.666 
   94500 1.533302e-07   -65953.027            0   -65953.027    13557.666 
   94600 2.174256e-07   -65953.027            0   -65953.027    13557.666 
   94700 1.2167374e-07   -65953.027            0   -65953.027    13557.666 
   94800 2.3013344e-07   -65953.027            0   -65953.027    13557.666 
   94900 1.7021058e-07   -65953.027            0   -65953.027    13557.666 
   95000 2.5447048e-07   -65953.027            0   -65953.027    13557.666 
   95100 3.1598631e-07   -65953.027            0   -65953.027    13557.666 
   95200 1.744241e-07   -65953.027            0   -65953.027    13557.666 
   95300 4.1644377e-07   -65953.027            0   -65953.027    13557.666 
   95400 1.8737146e-07   -65953.027            0   -65953.027    13557.666 
   95500 2.9999325e-07   -65953.027            0   -65953.027    13557.666 
   95600 1.9201516e-07   -65953.027            0   -65953.027    13557.666 
   95700 1.9489324e-07   -65953.027            0   -65953.027    13557.666 
   95800 1.4078159e-07   -65953.027            0   -65953.027    13557.666 
   95900 2.2084601e-07   -65953.027            0   -65953.027    13557.666 
   96000 2.8962411e-07   -65953.027            0   -65953.027    13557.666 
   96100 2.1213162e-07   -65953.027            0   -65953.027    13557.666 
   96200 3.8394637e-07   -65953.027            0   -65953.027    13557.666 
   96300 2.3511689e-07   -65953.027            0   -65953.027    13557.666 
   96400 2.9208926e-07   -65953.027            0   -65953.027    13557.666 
   96500 2.4687869e-07   -65953.027            0   -65953.027    13557.666 
   96600 2.7175903e-07   -65953.027            0   -65953.027    13557.666 
   96700 1.4418777e-07   -65953.027            0   -65953.027    13557.666 
   96800 2.7884226e-07   -65953.027            0   -65953.027    13557.666 
   96900 1.6191199e-07   -65953.027            0   -65953.027    13557.666 
   97000 2.3846684e-07   -65953.027            0   -65953.027    13557.666 
   97100 3.6501344e-07   -65953.027            0   -65953.027    13557.666 
   97200 2.5056584e-07   -65953.027            0   -65953.027    13557.666 
   97300 3.7814949e-07   -65953.027            0   -65953.027    13557.666 
   97400 2.2743098e-07   -65953.027            0   -65953.027    13557.666 
   97500 3.2169274e-07   -65953.027            0   -65953.027    13557.666 
   97600 9.8232584e-08   -65953.027            0   -65953.027    13557.666 
   97700 3.3825535e-07   -65953.027            0   -65953.027    13557.666 
   97800 1.6525013e-07   -65953.027            0   -65953.027    13557.666 
   97900 2.0379329e-07   -65953.027            0   -65953.027    13557.666 
   98000 3.6125849e-07   -65953.027            0   -65953.027    13557.666 
   98100 1.8637383e-07   -65953.027            0   -65953.027    13557.666 
   98200 4.2404768e-07   -65953.027            0   -65953.027    13557.666 
   98300 2.8539604e-07   -65953.027            0   -65953.027    13557.666 
   98400 3.9107374e-07   -65953.027            0   -65953.027    13557.666 
   98500 1.9354652e-07   -65953.027            0   -65953.027    13557.666 
   98600 2.9505674e-07   -65953.027            0   -65953.027    13557.666 
   98700 1.6152187e-07   -65953.027            0   -65953.027    13557.666 
   98800 1.9466491e-07   -65953.027            0   -65953.027    13557.666 
   98900 3.2949744e-07   -65953.027            0   -65953.027    13557.666 
   99000 2.1364439e-07   -65953.027            0   -65953.027    13557.666 
   99100 3.5126027e-07   -65953.027            0   -65953.027    13557.666 
   99200 3.4104426e-07   -65953.027            0   -65953.027    13557.666 
   99300 3.4691012e-07   -65953.027            0   -65953.027    13557.666 
   99400 2.8512433e-07   -65953.027            0   -65953.027    13557.666 
   99500 4.1724035e-07   -65953.027            0   -65953.027    13557.666 
   99600 1.4779145e-07   -65953.027            0   -65953.027    13557.666 
   99700 2.6807203e-07   -65953.027            0   -65953.027    13557.666 
   99800 1.9673658e-07   -65953.027            0   -65953.027    13557.666 
   99900 2.2923109e-07   -65953.027            0   -65953.027    13557.666 
  100000 3.0454114e-07   -65953.027            0   -65953.027    13557.666 
  100001 2.8019531e-07   -65953.027            0   -65953.027    13557.666 
Loop time of 2441.03 on 1 procs for 100000 steps with 16000 atoms

Performance: 35.395 ns/day, 0.678 hours/ns, 40.966 timesteps/s
97.6% CPU use with 1 MPI tasks x no OpenMP threads

MPI task timing breakdown:
Section |  min time  |  avg time  |  max time  |%varavg| %total
---------------------------------------------------------------
Pair    | 2362.6     | 2362.6     | 2362.6     |   0.0 | 96.79
Neigh   | 0          | 0          | 0          |   0.0 |  0.00
Comm    | 7.8418     | 7.8418     | 7.8418     |   0.0 |  0.32
Output  | 29.93      | 29.93      | 29.93      |   0.0 |  1.23
Modify  | 30.726     | 30.726     | 30.726     |  -nan |  1.26
Other   |            | 9.91       |            |       |  0.41

Nlocal:    16000 ave 16000 max 16000 min
Histogram: 1 0 0 0 0 0 0 0 0 0
Nghost:    9991 ave 9991 max 9991 min
Histogram: 1 0 0 0 0 0 0 0 0 0
Neighs:    464000 ave 464000 max 464000 min
Histogram: 1 0 0 0 0 0 0 0 0 0

Total # of neighbors = 464000
Ave neighs/atom = 29
Neighbor list builds = 0
Dangerous builds = 0
Total wall time: 0:40:41
