ITEM: TIMESTEP
0
ITEM: NUMBER OF ATOMS
1
ITEM: BOX BOUNDS pp pp pp
0.0000000000000000e+00 4.5287799999999997e+01
0.0000000000000000e+00 4.5287799999999997e+01
0.0000000000000000e+00 1.0948680000000000e+02
ITEM: ATOMS id type x y z 
1719 3 12.7313 18.4 2.86965 
ITEM: TIMESTEP
85
ITEM: NUMBER OF ATOMS
1
ITEM: BOX BOUNDS pp pp pp
0.0000000000000000e+00 4.5287799999999997e+01
0.0000000000000000e+00 4.5287799999999997e+01
0.0000000000000000e+00 1.0948680000000000e+02
ITEM: ATOMS id type x y z 
1719 3 12.7279 18.4028 2.1264 
ITEM: TIMESTEP
0
ITEM: NUMBER OF ATOMS
1
ITEM: BOX BOUNDS pp pp pp
0.0000000000000000e+00 4.5287799999999997e+01
0.0000000000000000e+00 4.5287799999999997e+01
0.0000000000000000e+00 1.0948680000000000e+02
ITEM: ATOMS id type x y z 
1719 3 13.5798 24.3451 96.8073 
ITEM: TIMESTEP
118
ITEM: NUMBER OF ATOMS
1
ITEM: BOX BOUNDS pp pp pp
0.0000000000000000e+00 4.5287799999999997e+01
0.0000000000000000e+00 4.5287799999999997e+01
0.0000000000000000e+00 1.0948680000000000e+02
ITEM: ATOMS id type x y z 
1719 3 13.5752 24.3127 96.888 
ITEM: TIMESTEP
130
ITEM: NUMBER OF ATOMS
1
ITEM: BOX BOUNDS pp pp pp
0.0000000000000000e+00 4.5287799999999997e+01
0.0000000000000000e+00 4.5287799999999997e+01
0.0000000000000000e+00 1.0948680000000000e+02
ITEM: ATOMS id type x y z 
1719 3 13.5749 24.311 96.8922 
