LAMMPS (3 Mar 2020)
Processor partition = 5
#initialization
units                   metal
atom_style		atomic
atom_modify		map array
boundary                p p p
atom_modify		sort 0 0.0


#simulation box definition
read_data              /share/home/yszhang/PBS/myExample/Fe-Cr-Mn/Mn-neb/CrFeMn.data
  orthogonal box = (0 0 0) to (45.2878 45.2878 109.487)
  1 by 1 by 2 MPI processor grid
  reading atoms ...
  11008 atoms
  read_data CPU = 0.0182092 secs

group nebatoms id 1719
1 atoms in group nebatoms

#potential
pair_style          meam
pair_coeff          * * /share/home/yszhang/lammps/lammps-install/potentials/CoNiCrFeMn/library.meam Cr Fe Mn  /share/home/yszhang/lammps/lammps-install/potentials/CoNiCrFeMn/CoNiCrFeMn.meam Cr Fe Mn

#setting
neighbor                0.5 bin
timestep                0.001

variable 		u uloop 20

dump			1 nebatoms custom 1000 dump.neb.$u id type x y z
dump			1 nebatoms custom 1000 dump.neb.6 id type x y z
#dump            2 all custom 1000 dump.all.$u id type x y z

minimize                1.0e-12 1.0e-12 1000000 1000000
WARNING: Using 'neigh_modify every 1 delay 0 check yes' setting during minimization (../min.cpp:190)
Neighbor list info ...
  update every 1 steps, delay 0 steps, check yes
  max neighbors/atom: 2000, page size: 100000
  master list distance cutoff = 5
  ghost atom cutoff = 5
  binsize = 2.5, bins = 19 19 44
  2 neighbor lists, perpetual/occasional/extra = 2 0 0
  (1) pair meam, perpetual
      attributes: full, newton on
      pair build: full/bin/atomonly
      stencil: full/bin/3d
      bin: standard
  (2) pair meam, perpetual, half/full from (1)
      attributes: half, newton on
      pair build: halffull/newton
      stencil: none
      bin: none
Per MPI rank memory allocation (min/avg/max) = 11.71 | 16.72 | 21.72 Mbytes
Step Temp E_pair E_mol TotEng Press 
       0            0   -51718.648            0   -51718.648    46033.997 
      85            0   -51815.903            0   -51815.903    11734.045 
Loop time of 27.9854 on 2 procs for 85 steps with 11008 atoms

95.7% CPU use with 2 MPI tasks x no OpenMP threads

Minimization stats:
  Stopping criterion = energy tolerance
  Energy initial, next-to-last, final = 
        -51718.6484967     -51815.9032362     -51815.9032362
  Force two-norm initial, final = 10.9636 0.000678962
  Force max component initial, final = 0.81601 1.84043e-05
  Final line search alpha, max atom move = 1 1.84043e-05
  Iterations, force evaluations = 85 165

MPI task timing breakdown:
Section |  min time  |  avg time  |  max time  |%varavg| %total
---------------------------------------------------------------
Pair    | 16.382     | 22.125     | 27.867     | 122.1 | 79.06
Neigh   | 0.005357   | 0.029096   | 0.052835   |  13.9 |  0.10
Comm    | 0.021796   | 5.7874     | 11.553     | 239.7 | 20.68
Output  | 0          | 0          | 0          |   0.0 |  0.00
Modify  | 0          | 0          | 0          |   0.0 |  0.00
Other   |            | 0.04425    |            |       |  0.16

Nlocal:    5504 ave 9728 max 1280 min
Histogram: 1 0 0 0 0 0 0 0 0 1
Nghost:    4769.5 ave 6253 max 3286 min
Histogram: 1 0 0 0 0 0 0 0 0 1
Neighs:    154232 ave 282112 max 26352 min
Histogram: 1 0 0 0 0 0 0 0 0 1
FullNghs:  308464 ave 559856 max 57072 min
Histogram: 1 0 0 0 0 0 0 0 0 1

Total # of neighbors = 616928
Ave neighs/atom = 56.0436
Neighbor list builds = 3
Dangerous builds = 0
reset_timestep      	0

fix 			1 nebatoms neb 1

thermo			100

timestep                0.01

min_style               quickmin

neb 1.0e-9 1.0e-4 10000000 10000000 1000 final /share/home/yszhang/PBS/myExample/Fe-Cr-Mn/Mn-neb/neb/Mn1719_1/final.file
WARNING: Using 'neigh_modify every 1 delay 0 check yes' setting during minimization (../min.cpp:190)
Per MPI rank memory allocation (min/avg/max) = 11.76 | 16.18 | 20.6 Mbytes
Step Temp E_pair E_mol TotEng Press 
       0            0   -51811.266            0   -51811.266     11706.25 
     100 1.1546109e-05    -51811.35            0    -51811.35     11717.93 
     118 7.5751004e-07    -51811.35            0    -51811.35    11718.118 
Loop time of 20.1804 on 2 procs for 118 steps with 11008 atoms

95.6% CPU use with 2 MPI tasks x no OpenMP threads

Minimization stats:
  Stopping criterion = energy tolerance
  Energy initial, next-to-last, final = 
        -51811.2664339     -51811.3502589     -51811.3502589
  Force two-norm initial, final = 0.867855 0.00556689
  Force max component initial, final = 0.353178 0.00502589
  Final line search alpha, max atom move = 0 0
  Iterations, force evaluations = 118 118

MPI task timing breakdown:
Section |  min time  |  avg time  |  max time  |%varavg| %total
---------------------------------------------------------------
Pair    | 11.795     | 15.91      | 20.026     | 103.2 | 78.84
Neigh   | 0          | 0          | 0          |   0.0 |  0.00
Comm    | 0.014384   | 4.1296     | 8.2448     | 202.5 | 20.46
Output  | 5.3883e-05 | 5.5432e-05 | 5.6982e-05 |   0.0 |  0.00
Modify  | 0.046044   | 0.046967   | 0.04789    |   0.4 |  0.23
Other   |            | 0.09338    |            |       |  0.46

Nlocal:    5504 ave 9727 max 1281 min
Histogram: 1 0 0 0 0 0 0 0 0 1
Nghost:    4772 ave 6253 max 3291 min
Histogram: 1 0 0 0 0 0 0 0 0 1
Neighs:    154177 ave 282058 max 26296 min
Histogram: 1 0 0 0 0 0 0 0 0 1
FullNghs:  308354 ave 559692 max 57016 min
Histogram: 1 0 0 0 0 0 0 0 0 1

Total # of neighbors = 616708
Ave neighs/atom = 56.0236
Neighbor list builds = 0
Dangerous builds = 0
WARNING: Using 'neigh_modify every 1 delay 0 check yes' setting during minimization (../min.cpp:190)
Per MPI rank memory allocation (min/avg/max) = 11.76 | 16.18 | 20.6 Mbytes
Step Temp E_pair E_mol TotEng Press 
     118            0    -51811.35            0    -51811.35    11718.118 
     130 8.9293181e-07    -51811.35            0    -51811.35    11718.221 
Loop time of 2.19253 on 2 procs for 12 steps with 11008 atoms

95.4% CPU use with 2 MPI tasks x no OpenMP threads

Minimization stats:
  Stopping criterion = energy tolerance
  Energy initial, next-to-last, final = 
        -51811.3502589     -51811.3502603     -51811.3502603
  Force two-norm initial, final = 0.00556689 0.00493799
  Force max component initial, final = 0.00502589 0.00446386
  Final line search alpha, max atom move = 0 0
  Iterations, force evaluations = 12 12

MPI task timing breakdown:
Section |  min time  |  avg time  |  max time  |%varavg| %total
---------------------------------------------------------------
Pair    | 1.2854     | 1.7343     | 2.1832     |  34.1 | 79.10
Neigh   | 0          | 0          | 0          |   0.0 |  0.00
Comm    | 0.0015018  | 0.45044    | 0.89937    |  66.9 | 20.54
Output  | 0          | 0          | 0          |   0.0 |  0.00
Modify  | 0.0042672  | 0.0043632  | 0.0044591  |   0.1 |  0.20
Other   |            | 0.003444   |            |       |  0.16

Nlocal:    5504 ave 9727 max 1281 min
Histogram: 1 0 0 0 0 0 0 0 0 1
Nghost:    4772.5 ave 6253 max 3292 min
Histogram: 1 0 0 0 0 0 0 0 0 1
Neighs:    154175 ave 282054 max 26296 min
Histogram: 1 0 0 0 0 0 0 0 0 1
FullNghs:  308350 ave 559684 max 57016 min
Histogram: 1 0 0 0 0 0 0 0 0 1

Total # of neighbors = 616700
Ave neighs/atom = 56.0229
Neighbor list builds = 0
Dangerous builds = 0

Total wall time: 0:00:50
