LAMMPS (3 Mar 2020)
Running on 11 partitions of processors
Step MaxReplicaForce MaxAtomForce GradV0 GradV1 GradVc EBF EBR RDT RD1 PE1 RD2 PE2 ... RDN PEN
0    1.4927994   0.67035332 6.5881638e-06 0.00027996224            0    4.7196092    2.2092655    53.255216            0   -51815.903          0.1   -51813.378          0.2   -51811.184          0.3   -51811.218          0.4   -51811.246          0.5   -51811.266          0.6    -51811.28          0.7   -51811.288          0.8   -51811.288          0.9   -51811.281            1   -51813.393 
118  0.010936481 0.0066410993 4.3353996e-07 0.0029919282            0    4.5529825    2.0428374    53.454747            0   -51815.903   0.10041221   -51813.934   0.20075287    -51811.35   0.30098794    -51811.35   0.40110441    -51811.35   0.50110534    -51811.35    0.6010048    -51811.35    0.7008228    -51811.35   0.80058113    -51811.35    0.9003011    -51811.35            1   -51813.393 
Climbing replica = 3
Step MaxReplicaForce MaxAtomForce GradV0 GradV1 GradVc EBF EBR RDT RD1 PE1 RD2 PE2 ... RDN PEN
118  0.010936481 0.0066410993 4.3353996e-07 0.0029919282            0    4.5529825    2.0428374    53.454747            0   -51815.903   0.10041221   -51813.934   0.20075287    -51811.35   0.30098794    -51811.35   0.40110441    -51811.35   0.50110534    -51811.35    0.6010048    -51811.35    0.7008228    -51811.35   0.80058113    -51811.35    0.9003011    -51811.35            1   -51813.393 
130 0.0087564872 0.0044638619 4.1935054e-07 0.0018308718            0    4.5529799    2.0428363    53.455605            0   -51815.903   0.10038838   -51813.936   0.20076489    -51811.35    0.3009124    -51811.35   0.40100458    -51811.35   0.50101056    -51811.35   0.60092642    -51811.35   0.70076432    -51811.35   0.80054275    -51811.35   0.90028185    -51811.35            1   -51813.393 
