LAMMPS (3 Mar 2020)
Processor partition = 1
#initialization
units                   metal
atom_style		atomic
atom_modify		map array
boundary                p p p
atom_modify		sort 0 0.0


#simulation box definition
read_data              /share/home/yszhang/PBS/myExample/Fe-Cr-Mn/Mn-neb/CrFeMn.data
  orthogonal box = (0 0 0) to (45.2878 45.2878 109.487)
  1 by 1 by 2 MPI processor grid
  reading atoms ...
  11008 atoms
  read_data CPU = 0.0180271 secs

group nebatoms id 1719
1 atoms in group nebatoms

#potential
pair_style          meam
pair_coeff          * * /share/home/yszhang/lammps/lammps-install/potentials/CoNiCrFeMn/library.meam Cr Fe Mn  /share/home/yszhang/lammps/lammps-install/potentials/CoNiCrFeMn/CoNiCrFeMn.meam Cr Fe Mn

#setting
neighbor                0.5 bin
timestep                0.001

variable 		u uloop 20

dump			1 nebatoms custom 1000 dump.neb.$u id type x y z
dump			1 nebatoms custom 1000 dump.neb.2 id type x y z
#dump            2 all custom 1000 dump.all.$u id type x y z

minimize                1.0e-12 1.0e-12 1000000 1000000
WARNING: Using 'neigh_modify every 1 delay 0 check yes' setting during minimization (../min.cpp:190)
Neighbor list info ...
  update every 1 steps, delay 0 steps, check yes
  max neighbors/atom: 2000, page size: 100000
  master list distance cutoff = 5
  ghost atom cutoff = 5
  binsize = 2.5, bins = 19 19 44
  2 neighbor lists, perpetual/occasional/extra = 2 0 0
  (1) pair meam, perpetual
      attributes: full, newton on
      pair build: full/bin/atomonly
      stencil: full/bin/3d
      bin: standard
  (2) pair meam, perpetual, half/full from (1)
      attributes: half, newton on
      pair build: halffull/newton
      stencil: none
      bin: none
Per MPI rank memory allocation (min/avg/max) = 11.71 | 16.72 | 21.72 Mbytes
Step Temp E_pair E_mol TotEng Press 
       0            0   -51718.648            0   -51718.648    46033.997 
      85            0   -51815.903            0   -51815.903    11734.045 
Loop time of 27.8832 on 2 procs for 85 steps with 11008 atoms

95.3% CPU use with 2 MPI tasks x no OpenMP threads

Minimization stats:
  Stopping criterion = energy tolerance
  Energy initial, next-to-last, final = 
        -51718.6484967     -51815.9032362     -51815.9032362
  Force two-norm initial, final = 10.9636 0.000678962
  Force max component initial, final = 0.81601 1.84043e-05
  Final line search alpha, max atom move = 1 1.84043e-05
  Iterations, force evaluations = 85 165

MPI task timing breakdown:
Section |  min time  |  avg time  |  max time  |%varavg| %total
---------------------------------------------------------------
Pair    | 16.321     | 22.043     | 27.765     | 121.9 | 79.05
Neigh   | 0.0053501  | 0.029109   | 0.052868   |  13.9 |  0.10
Comm    | 0.020663   | 5.7663     | 11.512     | 239.3 | 20.68
Output  | 0          | 0          | 0          |   0.0 |  0.00
Modify  | 0          | 0          | 0          |   0.0 |  0.00
Other   |            | 0.04503    |            |       |  0.16

Nlocal:    5504 ave 9728 max 1280 min
Histogram: 1 0 0 0 0 0 0 0 0 1
Nghost:    4769.5 ave 6253 max 3286 min
Histogram: 1 0 0 0 0 0 0 0 0 1
Neighs:    154232 ave 282112 max 26352 min
Histogram: 1 0 0 0 0 0 0 0 0 1
FullNghs:  308464 ave 559856 max 57072 min
Histogram: 1 0 0 0 0 0 0 0 0 1

Total # of neighbors = 616928
Ave neighs/atom = 56.0436
Neighbor list builds = 3
Dangerous builds = 0
reset_timestep      	0

fix 			1 nebatoms neb 1

thermo			100

timestep                0.01

min_style               quickmin

neb 1.0e-9 1.0e-4 10000000 10000000 1000 final /share/home/yszhang/PBS/myExample/Fe-Cr-Mn/Mn-neb/neb/Mn1719_1/final.file
WARNING: Using 'neigh_modify every 1 delay 0 check yes' setting during minimization (../min.cpp:190)
Per MPI rank memory allocation (min/avg/max) = 11.76 | 16.18 | 20.6 Mbytes
Step Temp E_pair E_mol TotEng Press 
       0            0   -51813.378            0   -51813.378    11694.585 
     100 5.7531088e-05   -51813.928            0   -51813.928    11656.464 
     118 2.5968297e-06   -51813.934            0   -51813.934    11652.775 
Loop time of 20.1804 on 2 procs for 118 steps with 11008 atoms

95.5% CPU use with 2 MPI tasks x no OpenMP threads

Minimization stats:
  Stopping criterion = energy tolerance
  Energy initial, next-to-last, final = 
        -51813.3780364     -51813.9343536     -51813.9344024
  Force two-norm initial, final = 1.4928 0.0102992
  Force max component initial, final = 0.345037 0.00357204
  Final line search alpha, max atom move = 0 0
  Iterations, force evaluations = 118 118

MPI task timing breakdown:
Section |  min time  |  avg time  |  max time  |%varavg| %total
---------------------------------------------------------------
Pair    | 11.832     | 15.919     | 20.006     | 102.4 | 78.88
Neigh   | 0.0070231  | 0.038098   | 0.069174   |  15.9 |  0.19
Comm    | 0.013705   | 4.1321     | 8.2505     | 202.6 | 20.48
Output  | 5.1022e-05 | 5.2452e-05 | 5.3883e-05 |   0.0 |  0.00
Modify  | 0.054364   | 0.055292   | 0.05622    |   0.4 |  0.27
Other   |            | 0.03587    |            |       |  0.18

Nlocal:    5504 ave 9727 max 1281 min
Histogram: 1 0 0 0 0 0 0 0 0 1
Nghost:    4774.5 ave 6254 max 3295 min
Histogram: 1 0 0 0 0 0 0 0 0 1
Neighs:    154180 ave 282050 max 26311 min
Histogram: 1 0 0 0 0 0 0 0 0 1
FullNghs:  308361 ave 559682 max 57040 min
Histogram: 1 0 0 0 0 0 0 0 0 1

Total # of neighbors = 616722
Ave neighs/atom = 56.0249
Neighbor list builds = 4
Dangerous builds = 0
WARNING: Using 'neigh_modify every 1 delay 0 check yes' setting during minimization (../min.cpp:190)
Per MPI rank memory allocation (min/avg/max) = 11.76 | 16.18 | 20.6 Mbytes
Step Temp E_pair E_mol TotEng Press 
     118            0   -51813.934            0   -51813.934    11652.775 
     130 2.7919051e-06   -51813.936            0   -51813.936    11650.604 
Loop time of 2.19253 on 2 procs for 12 steps with 11008 atoms

95.6% CPU use with 2 MPI tasks x no OpenMP threads

Minimization stats:
  Stopping criterion = energy tolerance
  Energy initial, next-to-last, final = 
        -51813.9344024     -51813.9358942     -51813.9359078
  Force two-norm initial, final = 0.0102992 0.00875649
  Force max component initial, final = 0.00357204 0.00133425
  Final line search alpha, max atom move = 0 0
  Iterations, force evaluations = 12 12

MPI task timing breakdown:
Section |  min time  |  avg time  |  max time  |%varavg| %total
---------------------------------------------------------------
Pair    | 1.2842     | 1.7337     | 2.1833     |  34.1 | 79.07
Neigh   | 0          | 0          | 0          |   0.0 |  0.00
Comm    | 0.0012939  | 0.45088    | 0.90047    |  67.0 | 20.56
Output  | 0          | 0          | 0          |   0.0 |  0.00
Modify  | 0.0047381  | 0.0048314  | 0.0049248  |   0.1 |  0.22
Other   |            | 0.003089   |            |       |  0.14

Nlocal:    5504 ave 9727 max 1281 min
Histogram: 1 0 0 0 0 0 0 0 0 1
Nghost:    4774.5 ave 6254 max 3295 min
Histogram: 1 0 0 0 0 0 0 0 0 1
Neighs:    154181 ave 282050 max 26312 min
Histogram: 1 0 0 0 0 0 0 0 0 1
FullNghs:  308362 ave 559683 max 57041 min
Histogram: 1 0 0 0 0 0 0 0 0 1

Total # of neighbors = 616724
Ave neighs/atom = 56.0251
Neighbor list builds = 0
Dangerous builds = 0

Total wall time: 0:00:50
