LAMMPS (3 Mar 2020)
Processor partition = 6
Reading data file ...
  orthogonal box = (0 0 0) to (45.2878 45.2878 109.487)
  1 by 1 by 2 MPI processor grid
  reading atoms ...
  11008 atoms
  read_data CPU = 0.0184052 secs
1 atoms in group nebatoms
WARNING: Using 'neigh_modify every 1 delay 0 check yes' setting during minimization (../min.cpp:190)
Neighbor list info ...
  update every 1 steps, delay 0 steps, check yes
  max neighbors/atom: 2000, page size: 100000
  master list distance cutoff = 5
  ghost atom cutoff = 5
  binsize = 2.5, bins = 19 19 44
  2 neighbor lists, perpetual/occasional/extra = 2 0 0
  (1) pair meam, perpetual
      attributes: full, newton on
      pair build: full/bin/atomonly
      stencil: full/bin/3d
      bin: standard
  (2) pair meam, perpetual, half/full from (1)
      attributes: half, newton on
      pair build: halffull/newton
      stencil: none
      bin: none
Setting up cg style minimization ...
  Unit style    : metal
  Current step  : 0
Per MPI rank memory allocation (min/avg/max) = 11.71 | 16.72 | 21.72 Mbytes
Step Temp E_pair E_mol TotEng Press 
       0            0   -51718.648            0   -51718.648    46033.997 
      85            0   -51815.903            0   -51815.903    11734.045 
Loop time of 27.8991 on 2 procs for 85 steps with 11008 atoms

95.2% CPU use with 2 MPI tasks x no OpenMP threads

Minimization stats:
  Stopping criterion = energy tolerance
  Energy initial, next-to-last, final = 
        -51718.6484967     -51815.9032362     -51815.9032362
  Force two-norm initial, final = 10.9636 0.000678962
  Force max component initial, final = 0.81601 1.84043e-05
  Final line search alpha, max atom move = 1 1.84043e-05
  Iterations, force evaluations = 85 165

MPI task timing breakdown:
Section |  min time  |  avg time  |  max time  |%varavg| %total
---------------------------------------------------------------
Pair    | 16.338     | 22.06      | 27.782     | 121.8 | 79.07
Neigh   | 0.0053232  | 0.029474   | 0.053625   |  14.1 |  0.11
Comm    | 0.01971    | 5.7652     | 11.511     | 239.3 | 20.66
Output  | 0          | 0          | 0          |   0.0 |  0.00
Modify  | 0          | 0          | 0          |   0.0 |  0.00
Other   |            | 0.04442    |            |       |  0.16

Nlocal:    5504 ave 9728 max 1280 min
Histogram: 1 0 0 0 0 0 0 0 0 1
Nghost:    4769.5 ave 6253 max 3286 min
Histogram: 1 0 0 0 0 0 0 0 0 1
Neighs:    154232 ave 282112 max 26352 min
Histogram: 1 0 0 0 0 0 0 0 0 1
FullNghs:  308464 ave 559856 max 57072 min
Histogram: 1 0 0 0 0 0 0 0 0 1

Total # of neighbors = 616928
Ave neighs/atom = 56.0436
Neighbor list builds = 3
Dangerous builds = 0
WARNING: Using 'neigh_modify every 1 delay 0 check yes' setting during minimization (../min.cpp:190)
Setting up quickmin style minimization ...
  Unit style    : metal
  Current step  : 0
Per MPI rank memory allocation (min/avg/max) = 11.76 | 16.18 | 20.6 Mbytes
Step Temp E_pair E_mol TotEng Press 
       0            0    -51811.28            0    -51811.28    11708.423 
     100 6.6758915e-06    -51811.35            0    -51811.35    11718.373 
     118 4.9744015e-07    -51811.35            0    -51811.35    11718.518 
Loop time of 20.1804 on 2 procs for 118 steps with 11008 atoms

95.0% CPU use with 2 MPI tasks x no OpenMP threads

Minimization stats:
  Stopping criterion = energy tolerance
  Energy initial, next-to-last, final = 
        -51811.2804254     -51811.3502596     -51811.3502596
  Force two-norm initial, final = 0.796751 0.0045136
  Force max component initial, final = 0.429754 0.00403586
  Final line search alpha, max atom move = 0 0
  Iterations, force evaluations = 118 118

MPI task timing breakdown:
Section |  min time  |  avg time  |  max time  |%varavg| %total
---------------------------------------------------------------
Pair    | 11.755     | 15.863     | 19.971     | 103.1 | 78.61
Neigh   | 0          | 0          | 0          |   0.0 |  0.00
Comm    | 0.01175    | 4.12       | 8.2282     | 202.4 | 20.42
Output  | 5.2929e-05 | 5.4479e-05 | 5.6028e-05 |   0.0 |  0.00
Modify  | 0.078579   | 0.079319   | 0.080059   |   0.3 |  0.39
Other   |            | 0.1177     |            |       |  0.58

Nlocal:    5504 ave 9727 max 1281 min
Histogram: 1 0 0 0 0 0 0 0 0 1
Nghost:    4772 ave 6253 max 3291 min
Histogram: 1 0 0 0 0 0 0 0 0 1
Neighs:    154176 ave 282057 max 26295 min
Histogram: 1 0 0 0 0 0 0 0 0 1
FullNghs:  308352 ave 559690 max 57014 min
Histogram: 1 0 0 0 0 0 0 0 0 1

Total # of neighbors = 616704
Ave neighs/atom = 56.0233
Neighbor list builds = 0
Dangerous builds = 0
WARNING: Using 'neigh_modify every 1 delay 0 check yes' setting during minimization (../min.cpp:190)
Setting up quickmin style minimization ...
  Unit style    : metal
  Current step  : 118
Per MPI rank memory allocation (min/avg/max) = 11.76 | 16.18 | 20.6 Mbytes
Step Temp E_pair E_mol TotEng Press 
     118            0    -51811.35            0    -51811.35    11718.518 
     130 6.7150772e-07    -51811.35            0    -51811.35    11718.599 
Loop time of 2.19253 on 2 procs for 12 steps with 11008 atoms

95.2% CPU use with 2 MPI tasks x no OpenMP threads

Minimization stats:
  Stopping criterion = energy tolerance
  Energy initial, next-to-last, final = 
        -51811.3502596     -51811.3502609     -51811.3502609
  Force two-norm initial, final = 0.0045136 0.00429205
  Force max component initial, final = 0.00403586 0.00386234
  Final line search alpha, max atom move = 0 0
  Iterations, force evaluations = 12 12

MPI task timing breakdown:
Section |  min time  |  avg time  |  max time  |%varavg| %total
---------------------------------------------------------------
Pair    | 1.2821     | 1.7308     | 2.1796     |  34.1 | 78.94
Neigh   | 0          | 0          | 0          |   0.0 |  0.00
Comm    | 0.0012901  | 0.45008    | 0.89886    |  66.9 | 20.53
Output  | 0          | 0          | 0          |   0.0 |  0.00
Modify  | 0.004879   | 0.0049579  | 0.0050368  |   0.1 |  0.23
Other   |            | 0.00668    |            |       |  0.30

Nlocal:    5504 ave 9727 max 1281 min
Histogram: 1 0 0 0 0 0 0 0 0 1
Nghost:    4772.5 ave 6253 max 3292 min
Histogram: 1 0 0 0 0 0 0 0 0 1
Neighs:    154175 ave 282054 max 26296 min
Histogram: 1 0 0 0 0 0 0 0 0 1
FullNghs:  308350 ave 559684 max 57016 min
Histogram: 1 0 0 0 0 0 0 0 0 1

Total # of neighbors = 616700
Ave neighs/atom = 56.0229
Neighbor list builds = 0
Dangerous builds = 0
Total wall time: 0:00:50
