LAMMPS (3 Mar 2020)
Processor partition = 7
Reading data file ...
  orthogonal box = (0 0 0) to (45.2878 45.2878 109.487)
  1 by 1 by 2 MPI processor grid
  reading atoms ...
  11008 atoms
  read_data CPU = 0.018713 secs
1 atoms in group nebatoms
WARNING: Using 'neigh_modify every 1 delay 0 check yes' setting during minimization (../min.cpp:190)
Neighbor list info ...
  update every 1 steps, delay 0 steps, check yes
  max neighbors/atom: 2000, page size: 100000
  master list distance cutoff = 5
  ghost atom cutoff = 5
  binsize = 2.5, bins = 19 19 44
  2 neighbor lists, perpetual/occasional/extra = 2 0 0
  (1) pair meam, perpetual
      attributes: full, newton on
      pair build: full/bin/atomonly
      stencil: full/bin/3d
      bin: standard
  (2) pair meam, perpetual, half/full from (1)
      attributes: half, newton on
      pair build: halffull/newton
      stencil: none
      bin: none
Setting up cg style minimization ...
  Unit style    : metal
  Current step  : 0
Per MPI rank memory allocation (min/avg/max) = 11.71 | 16.72 | 21.72 Mbytes
Step Temp E_pair E_mol TotEng Press 
       0            0   -51718.648            0   -51718.648    46033.997 
      85            0   -51815.903            0   -51815.903    11734.045 
Loop time of 27.8769 on 2 procs for 85 steps with 11008 atoms

95.2% CPU use with 2 MPI tasks x no OpenMP threads

Minimization stats:
  Stopping criterion = energy tolerance
  Energy initial, next-to-last, final = 
        -51718.6484967     -51815.9032362     -51815.9032362
  Force two-norm initial, final = 10.9636 0.000678962
  Force max component initial, final = 0.81601 1.84043e-05
  Final line search alpha, max atom move = 1 1.84043e-05
  Iterations, force evaluations = 85 165

MPI task timing breakdown:
Section |  min time  |  avg time  |  max time  |%varavg| %total
---------------------------------------------------------------
Pair    | 16.294     | 22.028     | 27.761     | 122.2 | 79.02
Neigh   | 0.005367   | 0.029121   | 0.052874   |  13.9 |  0.10
Comm    | 0.019208   | 5.7762     | 11.533     | 239.5 | 20.72
Output  | 0          | 0          | 0          |   0.0 |  0.00
Modify  | 0          | 0          | 0          |   0.0 |  0.00
Other   |            | 0.04399    |            |       |  0.16

Nlocal:    5504 ave 9728 max 1280 min
Histogram: 1 0 0 0 0 0 0 0 0 1
Nghost:    4769.5 ave 6253 max 3286 min
Histogram: 1 0 0 0 0 0 0 0 0 1
Neighs:    154232 ave 282112 max 26352 min
Histogram: 1 0 0 0 0 0 0 0 0 1
FullNghs:  308464 ave 559856 max 57072 min
Histogram: 1 0 0 0 0 0 0 0 0 1

Total # of neighbors = 616928
Ave neighs/atom = 56.0436
Neighbor list builds = 3
Dangerous builds = 0
WARNING: Using 'neigh_modify every 1 delay 0 check yes' setting during minimization (../min.cpp:190)
Setting up quickmin style minimization ...
  Unit style    : metal
  Current step  : 0
Per MPI rank memory allocation (min/avg/max) = 11.76 | 16.18 | 20.6 Mbytes
Step Temp E_pair E_mol TotEng Press 
       0            0   -51811.288            0   -51811.288    11710.689 
     100 3.4905877e-06    -51811.35            0    -51811.35    11718.816 
     118 2.8147896e-07    -51811.35            0    -51811.35    11718.919 
Loop time of 20.1804 on 2 procs for 118 steps with 11008 atoms

95.4% CPU use with 2 MPI tasks x no OpenMP threads

Minimization stats:
  Stopping criterion = energy tolerance
  Energy initial, next-to-last, final = 
        -51811.2875863     -51811.3502598     -51811.3502598
  Force two-norm initial, final = 0.762482 0.00339633
  Force max component initial, final = 0.508194 0.00295582
  Final line search alpha, max atom move = 0 0
  Iterations, force evaluations = 118 118

MPI task timing breakdown:
Section |  min time  |  avg time  |  max time  |%varavg| %total
---------------------------------------------------------------
Pair    | 11.732     | 15.834     | 19.937     | 103.1 | 78.46
Neigh   | 0          | 0          | 0          |   0.0 |  0.00
Comm    | 0.012056   | 4.1146     | 8.2172     | 202.3 | 20.39
Output  | 5.2929e-05 | 5.4479e-05 | 5.6028e-05 |   0.0 |  0.00
Modify  | 0.10066    | 0.10152    | 0.10237    |   0.3 |  0.50
Other   |            | 0.1298     |            |       |  0.64

Nlocal:    5504 ave 9727 max 1281 min
Histogram: 1 0 0 0 0 0 0 0 0 1
Nghost:    4772 ave 6253 max 3291 min
Histogram: 1 0 0 0 0 0 0 0 0 1
Neighs:    154175 ave 282056 max 26294 min
Histogram: 1 0 0 0 0 0 0 0 0 1
FullNghs:  308350 ave 559688 max 57012 min
Histogram: 1 0 0 0 0 0 0 0 0 1

Total # of neighbors = 616700
Ave neighs/atom = 56.0229
Neighbor list builds = 0
Dangerous builds = 0
WARNING: Using 'neigh_modify every 1 delay 0 check yes' setting during minimization (../min.cpp:190)
Setting up quickmin style minimization ...
  Unit style    : metal
  Current step  : 118
Per MPI rank memory allocation (min/avg/max) = 11.76 | 16.18 | 20.6 Mbytes
Step Temp E_pair E_mol TotEng Press 
     118            0    -51811.35            0    -51811.35    11718.919 
     130 4.0447141e-07    -51811.35            0    -51811.35    11718.976 
Loop time of 2.19253 on 2 procs for 12 steps with 11008 atoms

95.6% CPU use with 2 MPI tasks x no OpenMP threads

Minimization stats:
  Stopping criterion = energy tolerance
  Energy initial, next-to-last, final = 
        -51811.3502598     -51811.3502611     -51811.3502611
  Force two-norm initial, final = 0.00339633 0.00333475
  Force max component initial, final = 0.00295582 0.00294581
  Final line search alpha, max atom move = 0 0
  Iterations, force evaluations = 12 12

MPI task timing breakdown:
Section |  min time  |  avg time  |  max time  |%varavg| %total
---------------------------------------------------------------
Pair    | 1.2799     | 1.7279     | 2.176      |  34.1 | 78.81
Neigh   | 0          | 0          | 0          |   0.0 |  0.00
Comm    | 0.001281   | 0.44934    | 0.8974     |  66.8 | 20.49
Output  | 0          | 0          | 0          |   0.0 |  0.00
Modify  | 0.0082846  | 0.0083603  | 0.008436   |   0.1 |  0.38
Other   |            | 0.006903   |            |       |  0.31

Nlocal:    5504 ave 9727 max 1281 min
Histogram: 1 0 0 0 0 0 0 0 0 1
Nghost:    4772.5 ave 6253 max 3292 min
Histogram: 1 0 0 0 0 0 0 0 0 1
Neighs:    154175 ave 282054 max 26296 min
Histogram: 1 0 0 0 0 0 0 0 0 1
FullNghs:  308350 ave 559684 max 57016 min
Histogram: 1 0 0 0 0 0 0 0 0 1

Total # of neighbors = 616700
Ave neighs/atom = 56.0229
Neighbor list builds = 0
Dangerous builds = 0
Total wall time: 0:00:50
